# vtk DataFile Version 3.0
vtk output
ASCII
DATASET UNSTRUCTURED_GRID
POINTS 50018 float
0.414709 0.484407 0
0.428123 0.485638 0
0.429365 0.487199 0
0.427253 0.499069 0
0.414131 0.498414 0
0.414709 0.484407 0
0.429365 0.487199 0
0.442371 0.487743 0
0.441881 0.50112 0
0.441325 0.501671 0
0.428591 0.500835 0
0.427253 0.499069 0
0.429365 0.487199 0
1.0897 0.226182 0
1.11128 0.230346 0
1.11348 0.239557 0
1.11062 0.246263 0
1.08768 0.244692 0
1.0863 0.24149 0
1.0897 0.226182 0
0.413434 0.51175 0
0.4134 0.499088 0
0.414131 0.498414 0
0.427253 0.499069 0
0.428591 0.500835 0
0.426057 0.513106 0
0.413434 0.51175 0
0.428591 0.500835 0
0.441325 0.501671 0
0.441403 0.514458 0
0.440509 0.51533 0
0.426905 0.51425 0
0.426057 0.513106 0
0.428591 0.500835 0
1.06452 0.256087 0
1.08519 0.25592 0
1.08717 0.260411 0
1.08373 0.274307 0
1.0635 0.271056 0
1.06452 0.256087 0
0.456209 0.488149 0
0.456576 0.488582 0
0.456016 0.501643 0
0.441881 0.50112 0
0.442371 0.487743 0
0.442445 0.487673 0
0.456209 0.488149 0
-0.0912456 -0.173274 0
-0.0809799 -0.14364 0
-0.0817688 -0.142364 0
-0.0826474 -0.141149 0
-0.0836111 -0.139999 0
-0.084655 -0.138922 0
-0.0857736 -0.137923 0
-0.0869611 -0.137007 0
-0.0882114 -0.136179 0
-0.089518 -0.135443 0
-0.0908742 -0.134802 0
-0.0922729 -0.134261 0
-0.093707 -0.133822 0
-0.0951689 -0.133486 0
-0.0966511 -0.133257 0
-0.0981459 -0.133135 0
-0.0996456 -0.133121 0
-0.101143 -0.133215 0
-0.102629 -0.133416 0
-0.104097 -0.133724 0
-0.105539 -0.134136 0
-0.106947 -0.134651 0
-0.116369 -0.165627 0
-0.115534 -0.166776 0
-0.114624 -0.167866 0
-0.113641 -0.168891 0
-0.112591 -0.169847 0
-0.111478 -0.170729 0
-0.110307 -0.171533 0
-0.109085 -0.172256 0
-0.107816 -0.172894 0
-0.106507 -0.173444 0
-0.105163 -0.173904 0
-0.103791 -0.174271 0
-0.102397 -0.174544 0
-0.100988 -0.174721 0
-0.0995701 -0.174802 0
-0.09815 -0.174786 0
-0.0967343 -0.174673 0
-0.0953295 -0.174465 0
-0.0939422 -0.174161 0
-0.0925788 -0.173764 0
-0.0912456 -0.173274 0
1.06601 0.238059 0
1.0863 0.24149 0
1.08768 0.244692 0
1.08519 0.25592 0
1.06452 0.256087 0
1.06352 0.254651 0
1.0641 0.240121 0
1.06601 0.238059 0
0.441403 0.514458 0
0.441325 0.501671 0
0.441881 0.50112 0
0.456016 0.501643 0
0.456268 0.50194 0
0.454423 0.515581 0
0.441403 0.514458 0
1.08768 0.244692 0
1.11062 0.246263 0
1.11219 0.255442 0
1.10819 0.264041 0
1.08717 0.260411 0
1.08519 0.25592 0
1.08768 0.244692 0
-0.116369 -0.165627 0
-0.106947 -0.134651 0
-0.107335 -0.134134 0
-0.107738 -0.13363 0
-0.108157 -0.13314 0
-0.108592 -0.132663 0
-0.109041 -0.132199 0
-0.109505 -0.131751 0
-0.109984 -0.131317 0
-0.110475 -0.130899 0
-0.11098 -0.130497 0
-0.111497 -0.130111 0
-0.112026 -0.129741 0
-0.112567 -0.129389 0
-0.113118 -0.129054 0
-0.11368 -0.128736 0
-0.114252 -0.128437 0
-0.114833 -0.128156 0
-0.115423 -0.127893 0
-0.11602 -0.12765 0
-0.116626 -0.127425 0
-0.117238 -0.12722 0
-0.137447 -0.131926 0
-0.139309 -0.133975 0
-0.140874 -0.136259 0
-0.142115 -0.138734 0
-0.143007 -0.141355 0
-0.143535 -0.144073 0
-0.143687 -0.146837 0
-0.143462 -0.149597 0
-0.142864 -0.1523 0
-0.141904 -0.154897 0
-0.140599 -0.157339 0
-0.138974 -0.159581 0
-0.13706 -0.161581 0
-0.134891 -0.163302 0
-0.132508 -0.164712 0
-0.129955 -0.165785 0
-0.12728 -0.1665 0
-0.124533 -0.166845 0
-0.121765 -0.166813 0
-0.119026 -0.166404 0
-0.116369 -0.165627 0
0.469166 0.503429 0
0.469285 0.503569 0
0.468239 0.517141 0
0.455182 0.516491 0
0.454423 0.515581 0
0.456268 0.50194 0
0.469166 0.503429 0
1.12429 0.178382 0
1.14892 0.187692 0
1.14904 0.198178 0
1.14396 0.205401 0
1.11987 0.200209 0
1.11852 0.195747 0
1.12429 0.178382 0
0.413434 0.51175 0
0.426057 0.513106 0
0.426905 0.51425 0
0.425207 0.526309 0
0.411863 0.525888 0
0.411816 0.525836 0
0.412205 0.512861 0
0.413434 0.51175 0
-0.0632839 -0.213498 0
-0.0495696 -0.191828 0
-0.0497079 -0.190973 0
-0.0498835 -0.190126 0
-0.0500959 -0.189286 0
-0.0503446 -0.188457 0
-0.0506293 -0.18764 0
-0.0509495 -0.186835 0
-0.0513044 -0.186046 0
-0.0516934 -0.185273 0
-0.0521158 -0.184517 0
-0.0525707 -0.183781 0
-0.0530574 -0.183065 0
-0.0535748 -0.182371 0
-0.054122 -0.1817 0
-0.0546979 -0.181054 0
-0.0553015 -0.180433 0
-0.0559316 -0.17984 0
-0.056587 -0.179274 0
-0.0572665 -0.178738 0
-0.0579687 -0.178232 0
-0.0586923 -0.177757 0
-0.0836042 -0.180921 0
-0.0852717 -0.182929 0
-0.0866611 -0.185138 0
-0.0877484 -0.18751 0
-0.088515 -0.190005 0
-0.0889473 -0.192578 0
-0.0890381 -0.195186 0
-0.0887857 -0.197784 0
-0.0881944 -0.200326 0
-0.0872746 -0.202768 0
-0.0860421 -0.205068 0
-0.0845183 -0.207186 0
-0.0827295 -0.209087 0
-0.0807068 -0.210735 0
-0.0784851 -0.212105 0
-0.0761029 -0.21317 0
-0.0736014 -0.213914 0
-0.0710239 -0.214322 0
-0.0684151 -0.214389 0
-0.0658202 -0.214113 0
-0.0632839 -0.213498 0
1.11642 0.218232 0
1.11507 0.212641 0
1.11987 0.200209 0
1.14396 0.205401 0
1.14423 0.221034 0
1.1407 0.225749 0
1.11642 0.218232 0
0.426905 0.51425 0
0.440509 0.51533 0
0.440098 0.527883 0
0.438987 0.52884 0
0.426281 0.527627 0
0.425207 0.526309 0
0.426905 0.51425 0
-0.0495696 -0.191828 0
-0.0632839 -0.213498 0
-0.0619919 -0.217988 0
-0.0596623 -0.222037 0
-0.0564308 -0.225412 0
-0.0524853 -0.227914 0
-0.0480555 -0.229398 0
-0.0433991 -0.229779 0
-0.038787 -0.229033 0
-0.0344876 -0.227205 0
-0.030751 -0.224401 0
-0.0277947 -0.220783 0
-0.0257906 -0.216563 0
-0.0248554 -0.211985 0
-0.0250436 -0.207317 0
-0.026344 -0.20283 0
-0.0286812 -0.198785 0
-0.031919 -0.195417 0
-0.0358691 -0.192922 0
-0.0403017 -0.191446 0
-0.0449589 -0.191074 0
-0.0495696 -0.191828 0
1.14892 0.187692 0
1.15638 0.176598 0
1.17719 0.182058 0
1.1789 0.211085 0
1.14904 0.198178 0
1.14892 0.187692 0
0.426281 0.527627 0
0.438987 0.52884 0
0.438534 0.542397 0
0.438239 0.542673 0
0.425077 0.54198 0
0.424079 0.540763 0
0.426281 0.527627 0
-0.0836042 -0.180921 0
-0.0586923 -0.177757 0
-0.058194 -0.177251 0
-0.0577133 -0.176729 0
-0.0572507 -0.176191 0
-0.0568067 -0.175638 0
-0.0563819 -0.175069 0
-0.0559767 -0.174487 0
-0.0555917 -0.17389 0
-0.0552273 -0.173281 0
-0.0548838 -0.17266 0
-0.0545618 -0.172028 0
-0.0542616 -0.171385 0
-0.0539835 -0.170732 0
-0.0537278 -0.17007 0
-0.053495 -0.1694 0
-0.0532851 -0.168722 0
-0.0530986 -0.168037 0
-0.0529355 -0.167346 0
-0.0527961 -0.166651 0
-0.0526805 -0.16595 0
-0.0525889 -0.165247 0
-0.0672265 -0.143418 0
-0.072189 -0.142168 0
-0.0726378 -0.14215 0
-0.0730869 -0.142142 0
-0.073536 -0.142144 0
-0.073985 -0.142155 0
-0.0744337 -0.142176 0
-0.0748818 -0.142207 0
-0.0753291 -0.142248 0
-0.0757754 -0.142298 0
-0.0762206 -0.142358 0
-0.0766643 -0.142427 0
-0.0771065 -0.142506 0
-0.0775468 -0.142594 0
-0.0779851 -0.142692 0
-0.0784212 -0.1428 0
-0.0788549 -0.142917 0
-0.079286 -0.143043 0
-0.0797142 -0.143178 0
-0.0801394 -0.143323 0
-0.0805613 -0.143477 0
-0.0809799 -0.14364 0
-0.0912456 -0.173274 0
-0.0909669 -0.173744 0
-0.0906758 -0.174207 0
-0.0903727 -0.174662 0
-0.0900577 -0.175109 0
-0.089731 -0.175548 0
-0.0893929 -0.175978 0
-0.0890436 -0.176398 0
-0.0886834 -0.17681 0
-0.0883124 -0.177212 0
-0.0879311 -0.177603 0
-0.0875395 -0.177985 0
-0.087138 -0.178356 0
-0.0867269 -0.178717 0
-0.0863065 -0.179067 0
-0.085877 -0.179405 0
-0.0854387 -0.179732 0
-0.084992 -0.180047 0
-0.0845371 -0.180351 0
-0.0840744 -0.180642 0
-0.0836042 -0.180921 0
0.440509 0.51533 0
0.441403 0.514458 0
0.454423 0.515581 0
0.455182 0.516491 0
0.453116 0.52964 0
0.440098 0.527883 0
0.440509 0.51533 0
1.17719 0.182058 0
1.1891 0.175576 0
1.20026 0.177985 0
1.20136 0.179432 0
1.20234 0.180956 0
1.20321 0.182549 0
1.20395 0.184203 0
1.20457 0.185907 0
1.20507 0.187653 0
1.20543 0.189431 0
1.20565 0.191231 0
1.20575 0.193042 0
1.2057 0.194856 0
1.20553 0.196661 0
1.20521 0.198448 0
1.20477 0.200207 0
1.2042 0.201928 0
1.2035 0.203601 0
1.20267 0.205218 0
1.20173 0.206769 0
1.20068 0.208245 0
1.19952 0.209639 0
1.19826 0.210942 0
1.17923 0.21155 0
1.1789 0.211085 0
1.17719 0.182058 0
-0.0442837 -0.167871 0
-0.0320135 -0.154612 0
-0.036068 -0.132 0
-0.0627866 -0.139622 0
-0.0672265 -0.143418 0
-0.0525889 -0.165247 0
-0.0521967 -0.16544 0
-0.0518014 -0.165627 0
-0.0514031 -0.165808 0
-0.051002 -0.165982 0
-0.0505982 -0.16615 0
-0.0501917 -0.166312 0
-0.0497827 -0.166467 0
-0.0493713 -0.166615 0
-0.0489575 -0.166757 0
-0.0485416 -0.166892 0
-0.0481235 -0.16702 0
-0.0477034 -0.167142 0
-0.0472814 -0.167257 0
-0.0468576 -0.167365 0
-0.0464322 -0.167467 0
-0.0460052 -0.167561 0
-0.0455767 -0.167649 0
-0.0451469 -0.16773 0
-0.0447158 -0.167804 0
-0.0442837 -0.167871 0
0.455182 0.516491 0
0.468239 0.517141 0
0.46826 0.517165 0
0.467654 0.530568 0
0.466845 0.531266 0
0.453356 0.529954 0
0.453116 0.52964 0
0.455182 0.516491 0
1.14904 0.198178 0
1.1789 0.211085 0
1.17923 0.21155 0
1.1724 0.22693 0
1.14423 0.221034 0
1.14396 0.205401 0
1.14904 0.198178 0
-0.0627866 -0.139622 0
-0.036068 -0.132 0
-0.029881 -0.123697 0
-0.035159 -0.108471 0
-0.040204 -0.105719 0
-0.0563017 -0.110769 0
-0.0627866 -0.139622 0
-0.152737 -0.108093 0
-0.119847 -0.0934528 0
-0.119777 -0.0929851 0
-0.119717 -0.092516 0
-0.119668 -0.0920457 0
-0.119629 -0.0915745 0
-0.1196 -0.0911025 0
-0.119582 -0.0906299 0
-0.119574 -0.0901571 0
-0.119577 -0.0896843 0
-0.11959 -0.0892115 0
-0.119613 -0.0887392 0
-0.119647 -0.0882676 0
-0.119691 -0.0877967 0
-0.119745 -0.087327 0
-0.11981 -0.0868586 0
-0.119885 -0.0863917 0
-0.11997 -0.0859266 0
-0.120066 -0.0854634 0
-0.120171 -0.0850025 0
-0.120287 -0.084544 0
-0.120413 -0.0840882 0
-0.131965 -0.071653 0
-0.160307 -0.0804379 0
-0.160956 -0.0818664 0
-0.161499 -0.0833385 0
-0.161933 -0.0848462 0
-0.162256 -0.0863816 0
-0.162466 -0.0879364 0
-0.162562 -0.0895025 0
-0.162544 -0.0910713 0
-0.162411 -0.0926347 0
-0.162165 -0.0941842 0
-0.161806 -0.0957116 0
-0.161337 -0.0972088 0
-0.16076 -0.0986678 0
-0.160078 -0.100081 0
-0.159294 -0.10144 0
-0.158414 -0.102739 0
-0.157441 -0.10397 0
-0.156382 -0.105127 0
-0.15524 -0.106203 0
-0.154023 -0.107194 0
-0.152737 -0.108093 0
1.17923 0.21155 0
1.19826 0.210942 0
1.19979 0.212451 0
1.20117 0.214093 0
1.20241 0.215855 0
1.20347 0.217721 0
1.20436 0.219677 0
[...]
CELL_DATA 6400
FIELD FieldData 3
weight 1 6400 float
 0.0158233 0.0158827 0.00260305 0.0158455 0.0159071 0.0036053 0.0159295 0.000434581 0.00347662 0.0159561 0.00275207 0.00041229 0.015988 0.0014051 0.0158535 0.000393401 0.00159065 0.0159164 0.000375132 0.000889973 0.0159174 0.000431654 0.0159648 0.000592439 0.00074645 0.0160024 0.0010303 0.000913379 0.000462142 0.000553362 0.0159631 0.00181474 0.000457929 0.0021267 0.000472971 0.00194216 0.0013453 0.000573053 0.000452252 0.00117079 0.000835208 0.000617961 0.00044037 0.00452759 0.00101212 0.000565612 0.00486629 0.000767678 0.000642208 0.00469572 0.00164165 0.000794216 0.00399226 0.000955968 0.00159642 0.00380297 0.00110768 0.0022641 0.00122979 0.00294914 0.00234696 0.00305167 0.00108027 0.00251138 0.00130417 0.00151453 0.00331045 0.00202855 0.00127115 0.0015548 0.00499145 0.00152743 0.00265571 0.00135971 0.00223525 0.00412084 0.00247135 0.00205451 0.00430114 0.000517015 0.000538153 0.00515153 0.00042651 0.00112785 0.0043772 0.00044746 0.000603849 0.00337612 0.00173147 0.000675789 0.00366604 0.0022318 0.00072309 0.00352269 0.00210258 0.00082558 0.00223483 0.0027011 0.000875736 0.00238121 0.00242289 0.000628674 0.00147375 0.0017153 0.000921887 0.00148234 0.00134575 0.00061122 0.00261276 0.000473426 0.000747789 0.00262049 0.000597007 0.00149941 0.00213729 0.000791212 0.000505942 0.00253594 0.000751311 0.00326395 0.0026999 0.000661207 0.00348864 0.00281008 0.000741332 0.00340195 0.00199266 0.00109372 0.00151781 0.00424113 0.000809464 0.00429142 0.000956765 0.000969764 0.00429774 0.0013204 0.00336264 0.00100417 0.00341169 0.000734809 0.00151527 0.00356136 0.00146711 0.00123932 0.00340952 0.0111534 0.00112694 0.00437605 0.010465 0.00165804 0.00434864 0.00178678 0.0103461 0.00437145 0.00445167 0.00176457 0.0108238 0.00196224 0.010685 0.00509834 0.00236038 0.0110607 0.00200077 0.0112749 0.00507067 0.00192252 0.0114037 0.00515306 0.00229033 0.0105753 0.00519082 0.00255962 0.010927 0.00147727 0.00588493 0.00994148 0.00125935 0.00900319 0.00188103 0.0058858 0.00952831 0.00141227 0.00596088 0.00942876 0.00163581 0.00977107 0.00594098 0.0101867 0.00199221 0.00519946 0.0100809 0.00211006 0.00523863 0.00965809 0.00237971 0.00525509 0.00923835 0.00281517 0.00599922 0.00911271 0.00227219 0.00595945 0.00599788 0.00265927 0.011635 0.003533 0.0025455 0.011515 0.00346431 0.0106802 0.00297703 0.00343452 0.0107851 0.00442641 0.000654209 0.0111474 0.00434125 0.000548042 0.0113358 0.0044413 0.00125037 0.000854153 0.00352954 0.0116964 0.00340821 0.0112705 0.000503223 0.00350187 0.0108882 0.000970659 0.00356951 0.00154533 0.0109543 0.00443184 0.00136212 0.00987472 0.00434236 0.00142265 0.0104029 0.00146144 0.0043835 0.0102857 0.00183229 0.00439384 0.00932874 0.00191032 0.00522107 0.0094322 0.00527745 0.00175272 0.0104676 0.0052317 0.00228899 0.00996748 0.00520922 0.0100531 0.00244536 0.00604126 0.00952941 0.00229411 0.00598481 0.00171773 0.00602744 0.008558 0.00167312 0.0060095 0.0084102 0.00196602 0.00524999 0.00216324 0.0079459 0.00522438 0.00253916 0.00732427 0.00518414 0.00252658 0.00863473 0.00598858 0.00268559 0.00816927 0.00598784 0.00281744 0.00877135 0.00592412 0.000740827 0.00755243 0.0059324 0.000590195 0.00805396 0.00183366 0.000536858 0.00679819 0.00200483 0.00146723 0.00742057 0.00161726 0.00661822 0.000492713 0.00217583 0.00607676 0.000538356 0.00698519 0.000757305 0.00126225 0.00685299 0.00121338 0.00150108 0.00630982 0.00155287 0.000982257 0.00618423 0.00221521 0.00231391 0.008862 0.00261752 0.00178248 0.00244104 0.00835209 0.00218622 0.00230178 0.00771986 0.00214474 0.0016439 0.0076073 0.0023756 0.0024611 0.00277184 0.00826244 0.00247033 0.0023776 0.00891917 0.00247911 0.00241108 0.00905944 0.00307059 0.000626557 0.00314029 0.00841366 0.000629313 0.00315555 0.00787793 0.000653978 0.00376898 0.00781382 0.000775041 0.00702231 0.00126552 0.0024628 0.00636035 0.00148437 0.00331491 0.00723708 0.00154974 0.0031599 0.00714531 0.00231409 0.00269154 0.00239028 0.00642117 0.00340777 0.00215044 0.00653463 0.00337117 0.00238506 0.00202798 0.0118283 0.00396777 0.00147871 0.0040549 0.0117851 0.00218715 0.00414879 0.011478 0.00234968 0.0114245 0.0042072 0.00344864 0.011039 0.00345993 0.0027386 0.00341665 0.0119095 0.0025395 0.0033598 0.00303762 0.0119582 0.00429949 0.00288617 0.0115318 0.00435758 0.00295487 0.011141 0.00434238 0.002822 0.0110856 0.00431962 0.00338859 0.0105613 0.00350102 0.0101888 0.00315963 0.00322953 0.010618 0.00316182 0.00340382 0.00963387 0.00330158 0.00422283 0.0100986 0.00341603 0.00424596 0.0095896 0.00397599 0.00413725 0.0102205 0.00387146 0.00515548 0.0035171 0.010725 0.00516918 0.00373434 0.0106856 0.0050954 0.00972491 0.00400058 0.00515011 0.00412583 0.00974056 0.00435133 0.00594127 0.0120225 0.00331613 0.00585788 0.011639 0.00306558 0.00582322 0.00351859 0.00502773 0.0112424 0.00373653 0.00506107 0.0111811 0.00381403 0.00485834 0.0115875 0.00403075 0.00501561 0.0116632 0.00354859 0.00577587 0.00325282 0.00578531 0.0116771 0.0056725 0.00369866 0.0120397 0.00564344 0.00429556 0.00321281 0.00397341 0.0112708 0.0033032 0.00428611 0.0107562 0.00328607 0.00472743 0.00981565 0.00315783 0.010301 0.00456512 0.00401691 0.00452649 0.010308 0.00421627 0.00480879 0.00408664 0.0108451 0.00497971 0.00399254 0.0103601 0.003179 0.00471551 0.0108251 0.00311829 0.00507476 0.00309295 0.00986411 0.00526736 0.00981978 0.00554395 0.00304008 0.00367046 0.00913015 0.0036093 0.00390336 0.00906512 0.00419448 0.00393728 0.00853572 0.00384246 0.00378386 0.0079511 0.00448642 0.00853887 0.00374907 0.00430872 0.00922641 0.00454326 0.00494139 0.00869872 0.00466256 0.00475851 0.00860078 0.00500169 0.00477915 0.00799486 0.00486184 0.00557013 0.00802585 0.00549093 0.00727695 0.00550861 0.00464233 0.00661785 0.00468392 0.00457847 0.00735555 0.00463355 0.00488852 0.00738816 0.00453136 0.00482165 0.00670177 0.00521302 0.00444068 0.00663713 0.00526916 0.0092606 0.00566829 0.00928273 0.00583748 0.0066385 0.00871276 0.00553268 0.00813489 0.00540845 0.00809253 0.00655137 0.0059386 0.00665873 0.0087483 0.00611215 0.00514844 0.00665935 0.00931772 0.00496087 0.00872558 0.00526476 0.00724328 0.00814616 0.00549669 0.00730275 0.00741045 0.00732261 0.00531296 0.00672391 0.00735043 0.00679773 0.00590222 0.00670247 0.00751581 0.00571547 0.00748351 0.00668002 0.00576506 0.00682673 0.00671649 0.00602067 0.00735662 0.00536372 0.00598903 0.00735581 0.0052188 0.00737585 0.00621522 0.00460046 0.00622996 0.00452786 0.00842739 0.00648845 0.00556854 0.00545904 0.00672339 0.00787086 0.00472775 0.00792589 0.00629355 0.0079471 0.00371467 0.00608487 0.00282964 0.00660324 0.00301096 0.00849499 0.00644684 0.00387137 0.00659298 0.00393366 0.00297719 0.00902315 0.00683794 0.00565709 0.00902865 0.00699988 0.00475182 0.00851905 0.0069362 0.00491088 0.00849126 0.00645784 0.00575259 0.009051 0.00736913 0.00573206 0.00797154 0.00494193 0.00734553 0.00797653 0.00396764 0.00855971 0.00712276 0.00318262 0.00799151 0.00313067 0.00759441 0.00797268 0.00418496 0.00853091 0.00779706 0.00404781 0.00909078 0.00317678 0.00053759 0.00857801 0.00191118 0.000655105 0.00909928 0.00216633 0.000871023 0.00199276 0.00906873 0.000575709 0.00135049 0.00910444 0.000749555 0.00675094 0.000860898 0.000525704 0.00147294 0.00669603 0.00202478 0.00121865 0.00205581 0.0067064 0.00102282 0.0023312 0.00670512 0.0014168 0.00158865 0.00735602 0.00121431 0.000593209 0.000592363 0.00737862 0.00102223 0.00587014 0.00736735 0.00106696 0.00502768 0.00736429 0.000633832 0.0050148 0.00666555 0.000877705 0.00594216 0.00670244 0.00129599 0.00593513 0.00159083 0.00667031 0.00517384 0.0018174 0.0013478 0.00660332 0.00162112 0.0042434 0.00213868 0.00735584 0.00417462 0.00198541 0.00729236 0.00333276 0.00727058 0.00173286 0.00430576 0.00798558 0.0020721 0.00324115 0.00855593 0.0034278 0.00235215 0.00799706 0.00599736 0.00174171 0.0079576 0.00218389 0.00522462 0.00906806 0.00197213 0.00513513 0.00911468 0.00261648 0.00605379 0.00858956 0.00235582 0.00604751 0.00287971 0.00907123 0.00853611 0.00303455 0.0052813 0.00903169 0.00269695 0.00524015 0.00853019 0.0043828 0.00845582 0.00337479 0.00791383 0.00429602 0.0033821 0.00849412 0.00348642 0.00797075 0.00373079 0.00443399 0.00787667 0.00302144 0.00349201 0.00787252 0.00329847 0.00327272 0.00901821 0.00356227 0.00226232 0.00839461 0.00368638 0.0014232 0.00890249 0.00397988 0.00238124 0.00845307 0.00162062 0.00244185 0.00897326 0.000517469 0.00262766 0.000728575 0.00308239 0.00231235 0.00260366 0.0099879 0.00188982 0.00282963 0.00250709 0.00299862 0.00950024 0.00223036 0.0031469 0.00186284 0.00378896 0.00331301 0.000621543 0.0042387 0.00953787 0.00404097 0.000982376 0.00955785 0.00452285 0.00957092 0.00353704 0.000480681 0.0100146 0.00388797 0.00168132 0.00369092 0.0104605 0.00189561 0.00419992 0.000927561 0.00444067 0.0104117 0.00458386 0.0104908 0.000475049 0.0100374 0.000478421 0.00135373 0.0104856 0.0016851 0.000450097 0.00961021 0.001402 0.00193385 0.0100684 0.00160528 0.00175408 0.00959253 0.0016149 0.00227536 0.0100706 0.00114854 0.00122716 0.00352715 0.00959304 0.00174994 0.00327433 0.00134169 0.0105289 0.00323986 0.0105244 0.00210316 0.00222769 0.0105261 0.000724088 0.00304047 0.0100671 0.0100791 0.00278909 0.000535502 0.00205583 0.00084378 0.0108154 0.00100645 0.00379681 0.00171706 0.00355208 0.00308791 0.00217843 0.00394897 0.00198742 0.00397883 0.0108974 0.00373065 0.00152688 0.0109157 0.000597297 0.0036429 0.00210927 0.0108804 0.0019001 0.00116749 0.00235942 0.00234743 0.00134757 0.00232745 0.00205059 0.00140494 0.000882592 0.0112728 0.00257362 0.00165978 0.00149481 0.00242914 0.0011779 0.00289985 0.00266426 0.00221455 0.00254381 0.00332269 0.0116314 0.00227881 0.00182581 0.00357658 0.0112931 0.00247271 0.00336652 0.000564763 0.0112747 0.00286054 0.00286492 0.00065659 0.011655 0.00373029 0.00279825 0.000570112 0.00347258 0.0116739 0.00295182 0.00272702 0.00342522 0.00364549 0.0113487 0.00261787 0.002246 0.00388155 0.0109438 0.00290391 0.00376921 0.0113328 0.00203087 0.00243885 0.00184427 0.010953 0.00404469 0.00247953 0.00217314 0.0113276 0.00279266 0.00294704 0.0109292 0.00429819 0.00160009 0.00413929 0.0117158 0.00312916 0.00473915 0.0117095 0.00187294 0.00276307 0.00485989 0.00126394 0.0117069 0.00506479 0.00437699 0.000580558 0.0113217 0.004433 0.0053044 0.000771175 0.0117067 0.00463744 0.00536647 0.0100367 0.000565322 0.0045521 0.00422634 0.00960111 0.00514384 0.00959721 0.00530788 0.00436586 0.0160254 0.00540457 0.00954846 0.00518812 0.00307625 0.0095815 0.00617483 0.00307641 0.0104766 0.016012 0.0100845 0.0030881 0.00710815 0.016036 0.0105148 0.00390662 0.00699579 0.0104287 0.00612493 0.00402082 0.016037 0.0100347 0.0160253 0.00599641 0.00408326 0.0104759 0.0160266 0.00686727 0.00333793 0.00994902 0.00682855 0.0159868 0.00951697 0.00317854 0.0160015 0.0099836 0.0040491 0.00331627 0.00945864 0.00509284 0.0041242 0.0159477 0.00942287 0.0159611 0.00429746 0.00489977 0.00989211 0.0160017 0.0041039 0.015962 0.00474809 0.00940237 0.0047421 0.00575621 0.0104036 0.0160238 0.0047785 0.00590077 0.0102954 0.00487038 0.00664943 0.0103423 0.0160029 0.00546118 0.00560493 0.0160168 0.00985921 0.0159963 0.00640945 0.00554252 0.010922 0.00654537 0.0109127 0.0159696 0.00561978 0.0112783 0.00775087 0.0113148 0.00490944 0.0159199 0.00781567 0.00507354 0.0159624 0.0108945 0.0159143 0.00497843 0.0084511 0.0159899 0.0108522 0.0159652 0.00577129 0.00753471 0.0116636 0.0159551 0.0056764 0.00767018 0.0116773 0.0159309 0.00828964 0.00577941 0.0116227 0.0158867 0.0112423 0.00833871 0.0040786 0.0115819 0.00911758 0.0158942 0.00445451 0.0111412 0.0159097 0.00970319 0.00406676 0.0107698 0.00475875 0.00967322 0.0108116 0.0158271 0.0112188 0.00890533 0.015846 0.00437624 0.0159106 0.00902926 0.0106467 0.00513709 0.0159052 0.00439201 0.0107007 0.0100292 0.00476531 0.0115175 0.00955633 0.0157542 0.00465009 0.00743446 0.0157678 0.0114585 0.00543228 0.0158476 0.00814213 0.00506163 0.0158425 0.011047 0.00804631 0.00536493 0.015767 0.0110911 0.00732321 0.00540527 0.01576 0.00716333 0.015931 0.00658703 0.00509495 0.0158794 0.00789669 0.00546154 0.0158945 0.00648593 0.00887516 0.0158469 0.00569548 0.00655337 0.0158489 0.00578538 0.00723874 0.0093813 0.0072349 0.0157992 0.00608637 0.0158152 0.00714254 0.00994572 0.00646379 0.0157821 0.00714137 0.00943643 0.00581565 0.00639227 0.015735 0.00921391 0.00573184 0.0157032 0.00648174 0.00857927 0.00611532 0.0157341 0.00623096 0.00871488 0.00645807 0.0156604 0.00634283 0.00614872 0.0157811 0.00985645 0.00703505 0.00675804 0.015862 0.00700928 0.00972026 0.00639227 0.0158567 0.00685784 0.00447174 0.00494886 0.00685688 0.015793 0.00468507 0.00517547 0.00783831 0.0157134 0.00432622 0.00471254 0.00836797 0.0157604 0.00531554 0.0056067 0.00776168 0.0158318 0.00510725 0.00584076 0.0156782 0.0082633 0.00544378 0.00540898 0.0157021 0.00774079 0.00624778 0.00496264 0.007637 0.00591562 0.00561851 0.0155164 0.00608307 0.00891146 0.00511428 0.0156154 0.00393616 0.00880436 0.0155032 0.0053002 0.00414703 0.00867702 0.00606714 0.00494811 0.00824206 0.0154005 0.00627957 0.00875635 0.00581739 0.00369728 0.00599656 0.00761172 0.00449795 0.0152675 0.00743178 0.00626498 0.00470837 0.0153878 0.00604249 0.0074957 0.00572774 0.0152562 0.00807108 0.00649691 0.0156087 0.00651253 0.0155059 0.00624416 0.00814232 0.00668119 0.0155789 0.00526631 0.00798711 0.00703411 0.0154728 0.00548493 0.00732056 0.0153785 0.00792155 0.00602419 0.00714401 0.0152438 0.00620826 0.0153563 0.00705805 0.00692834 0.0061273 0.015222 0.00682224 0.00671725 0.00600564 0.00757789 0.0157901 0.00651152 0.005432 0.0157218 0.00776028 0.00692867 0.00678179 0.0157411 0.00737598 0.0156768 0.00734553 0.00664873 0.00669143 0.0156465 0.00658006 0.00755552 0.00808124 0.0155918 0.00528367 0.0155023 0.00711449 0.00844863 0.0156789 0.00534486 0.0089359 0.00664654 0.0156039 0.00508676 0.00956835 0.00638431 0.0156025 0.00514684 0.00909533 0.0155296 0.00676172 0.015529 0.00598114 0.00878597 0.0154324 0.00731273 0.00828795 0.00647868 0.0154488 0.00690745 0.015394 0.00580709 0.00943104 0.0155472 0.00742509 0.00576858 0.0154399 0.00926795 0.00703075 0.00562018 0.0151833 0.00721139 0.0153188 0.0068226 0.00738558 0.00772383 0.0152742 0.00742701 0.00724426 0.0153218 0.0079079 0.00715542 0.00711816 0.015204 0.00701832 0.00704126 0.00674977 0.00740415 0.0151353 0.00779379 0.00751723 0.00712796 0.00768228 0.00840237 0.0150682 0.00770933 0.00762027 0.00860403 0.00805228 0.00634809 0.00905723 0.0156617 0.00772879 0.00681178 0.00819921 0.015669 0.00693006 0.00716154 0.00885328 0.0155685 0.00610772 0.0156709 0.00758253 0.00864733 0.00625162 0.0156621 0.00796989 0.00745525 0.000610319 0.0155637 0.00733471 0.00771335 0.00102237 0.0155536 0.00720525 0.00114508 0.0154407 0.00804707 0.000803229 0.00666159 0.0153007 0.000915712 0.0078095 0.0154396 0.000694645 0.00705243 0.00819803 0.00110764 0.0154299 0.00930567 0.00168891 0.0153006 0.00845154 0.0155002 0.00926357 0.00149416 0.0156412 0.00802391 0.00916771 0.00251048 0.015614 0.00829934 0.0097371 0.0155367 0.00325227 0.0154627 0.00835887 0.00976857 0.00295791 0.0155668 0.00954798 0.00855558 0.00224776 0.0154165 0.00178088 0.0153847 0.00963088 0.00887709 0.0153342 0.00852421 0.00205114 0.0089244 0.0152863 0.00130016 0.00908487 0.00917859 0.0153975 0.00271254 0.0085862 0.00242401 0.00862677 0.00840747 0.0151529 0.00766645 0.000612415 0.00901826 0.0151419 0.00792611 0.000698415 0.00947305 0.0152889 0.00753925 0.000836607 0.0151414 0.000971838 0.00800046 0.00889587 0.0151171 0.00831214 0.000739972 0.00881479 0.0084884 0.0092612 0.000563302 0.0149705 0.00827196 0.000891913 0.00935834 0.0149686 0.0081378 0.000804839 0.0101716 0.00837126 0.00154726 0.0147787 0.00130886 0.0102068 0.00776582 0.00212727 0.0147813 0.00797343 0.00997177 0.0149591 0.00280892 0.0100776 0.00816164 0.0149539 0.00183383 0.00873303 0.0105707 0.0147701 0.00246967 0.00892222 0.0147583 0.0108701 0.00107924 0.0152675 0.00857323 0.00152129 0.0152461 0.0109513 0.00912527 0.00121933 0.0150901 0.0107651 0.00211421 0.0151455 0.00893184 0.0104874 0.0151972 0.00175369 0.00862255 0.0150388 0.0103827 0.00240569 0.0149878 0.00860672 0.00979265 0.0149138 0.00346927 0.00914982 0.0101933 0.0147307 0.00420262 0.00882689 0.00990016 0.00399629 0.0148138 0.00922379 0.0102937 0.00502281 0.0148647 0.00949978 0.00967684 0.00576916 0.015505 0.0105608 0.00947019 0.00475196 0.0154377 0.00553578 0.0106862 0.00974622 0.00373839 0.0152678 0.0100779 0.00340776 0.00938137 0.01536 0.00448674 0.0104618 0.0153578 0.00907827 0.00311286 0.0153299 0.0103208 0.00959915 0.00417591 0.0152032 0.0099373 0.00386417 0.0151617 0.00947754 0.00821161 0.0152467 0.00525026 0.0092699 0.0150391 0.00868655 0.00494681 0.0151281 0.00993572 0.00833096 0.00571367 0.00970247 0.00856502 0.0151547 0.00462837 0.00811273 0.0152507 0.0101351 0.00539673 0.00794876 0.014903 0.00981008 0.00651928 0.00912705 0.0149918 0.00543842 0.00902246 0.00725741 0.015045 0.00563613 0.00699711 0.00873982 0.0151255 0.0149369 0.00844553 0.00572176 0.00627446 0.0148159 0.00663423 0.0088743 0.00602605 0.0150553 0.00612358 0.00674353 0.00768441 0.0149285 0.00642091 0.00745732 0.00783334 0.0148011 0.00630462 0.0148451 0.00829964 0.00797832 0.0149986 0.00597512 0.00752189 0.01492 0.00770643 0.00590146 0.0150735 0.00855282 0.00608626 0.0148918 0.00905788 0.00655912 0.00813984 0.0146741 0.00841444 0.00668855 0.00795647 0.0147336 0.0067386 0.0088481 0.00780415 0.00789704 0.0144752 0.00727299 0.00954663 0.00815446 0.0147428 0.00680829 0.00942492 0.0145762 0.00858554 0.00693813 0.0148069 0.00927416 0.00647684 0.00787941 0.0146759 0.00915949 0.00718691 0.00773605 0.0146731 0.00687935 0.0145588 0.0101817 0.00803515 0.014407 0.00983135 0.00613937 0.00742923 0.0146383 0.00758838 0.00653436 0.00952257 0.0145213 0.00722072 0.0096596 0.00762584 0.00709921 0.0143521 0.00798839 0.0100135 0.00730801 0.0144021 0.00829886 0.00818328 0.00878821 0.0142572 0.00764814 0.00772553 0.0142395 0.00894961 0.0072853 0.00832277 0.0140936 0.00837363 0.00782341 0.00802157 0.0151108 0.0082117 0.00792161 0.00352784 0.00914316 0.00840663 0.00317067 0.00391104 0.00931933 0.0151178 0.0061841 0.00428758 0.0147851 0.00468637 0.00683191 0.00872617 0.0147703 0.00504319 0.00623371 0.00895343 0.00430815 0.0063474 0.00505502 0.00860213 0.0149616 0.00750471 0.00279932 0.000709695 0.0149433 0.00740764 0.00354778 0.000811888 0.00345974 0.0149413 0.00701589 0.00313325 0.000555905 0.0150987 0.00389503 0.00127471 0.00695147 0.00146387 0.00465051 0.0150764 0.0064028 0.00421225 0.0147665 0.00203178 0.00647144 0.0020867 0.0145843 0.00653302 0.00451201 0.00219345 0.00707544 0.0141493 0.00203976 0.00579352 0.00172694 0.00720924 0.00546004 0.00121573 0.00714124 0.0141489 0.00619651 0.00209164 0.0143789 0.00803105 0.00581664 0.00176135 0.0143834 0.00758608 0.00659089 0.000452561 0.0145821 0.00619167 0.00852371 0.0145649 0.000415555 0.00862898 0.00730481 0.0143549 0.000952515 0.00819888 0.00693521 0.014168 0.000497112 0.0141387 0.00814834 0.00763325 0.000649926 0.0149152 0.00870269 0.00694727 0.000597533 0.0150306 0.00824438 0.00127921 0.00726453 0.0148651 0.00765707 0.00187277 0.0147432 0.0076148 0.00185217 0.00831978 0.0146864 0.00159232 0.00541268 0.00770615 0.00185786 0.0149943 0.00578661 0.00114656 0.0148418 0.000845258 0.00610514 0.00783312 0.00141891 0.0049761 0.0149128 0.00136417 0.00775718 0.00532047 0.0147536 0.00876606 0.00291875 0.00563578 0.0146554 0.00883037 0.00290748 0.0144633 0.00650954 0.00290938 0.0145763 0.00897974 0.014396 0.00368137 0.00684031 0.0145043 0.00837111 0.00360622 0.0088735 0.00718405 0.014347 0.00831975 0.00348421 0.0145485 0.00639156 0.0088974 0.0142893 0.00274093 0.00674206 0.0141113 0.0087225 0.00277659 0.0140741 0.00266864 0.0086167 0.00697006 0.0138408 0.00848239 0.00258213 0.0142509 0.0102035 0.00927976 0.0141901 0.00437036 0.0106798 0.00942504 0.0137835 0.00425447 0.00905038 0.0140299 0.0107795 0.00419362 0.00958653 0.0112123 0.00407302 0.00919697 0.013917 0.0101572 0.00333854 0.00929868 0.00874891 0.00348518 0.0106448 0.0136621 0.00887147 0.00315339 0.0111321 0.0139182 0.00900115 0