# vtk DataFile Version 3.0
vtk output
ASCII
DATASET UNSTRUCTURED_GRID
POINTS 32127 float
0 0 0
1 0 0
1 1 0
0 1 0
0 0 0
0 0 0
1 0 0
1 1 0
0 1 0
0 0 0
0 0 0
1 0 0
1 1 0
0 1 0
0 0 0
0 0 0
1 0 0
1 1 0
0 1 0
0 0 0
0 0 0
1 0 0
1 1 0
0 1 0
0 0 0
0 0 0
1 0 0
1 1 0
0 1 0
0 0 0
0 0 0
1 0 0
1 1 0
0 1 0
0 0 0
0 0 0
1 0 0
1 1 0
0 1 0
0 0 0
0 0 0
1 0 0
1 1 0
0 1 0
0 0 0
0.955899 0 0
1 0 0
1 0.0884859 0
0.990886 0.0724598 0
0.955899 0 0
0 0 0
1 0 0
1 1 0
0 1 0
0 0 0
0 0 0
1 0 0
1 1 0
0 1 0
0 0 0
0 0 0
1 0 0
1 1 0
0 1 0
0 0 0
0 0 0
1 0 0
1 1 0
0 1 0
0 0 0
0 0 0
1 0 0
1 1 0
0 1 0
0 0 0
0.917977 0 0
1 0 0
1 0.127602 0
0.917977 0 0
0 0 0
1 0 0
1 1 0
0 1 0
0 0 0
0 0 0
1 0 0
1 1 0
0 1 0
0 0 0
0 0.0599726 0
0.0673991 0.104004 0
1 0.727164 0
1 1 0
0 1 0
0 0.0599726 0
0 0 0
1 0 0
1 1 0
0 1 0
0 0 0
0 0 0
1 0 0
1 1 0
0 1 0
0 0 0
0.950198 0 0
1 0 0
1 0.0600711 0
0.950198 0 0
0 0 0
1 0 0
1 1 0
0 1 0
0 0 0
0 0 0
1 0 0
1 1 0
0 1 0
0 0 0
0 0 0
1 0 0
1 1 0
0 1 0
0 0 0
0 0 0
1 0 0
1 1 0
0 1 0
0 0 0
0 0 0
0.0628405 0 0
0.276177 0.147434 0
0.680166 0.434428 0
1 0.67083 0
1 1 0
0 1 0
0 0 0
0.905563 0 0
1 0 0
1 0.139176 0
0.905563 0 0
0 0 0
1 0 0
1 1 0
0 1 0
0 0 0
0 0 0
1 0 0
1 1 0
0 1 0
0 0 0
0 0 0
0.0407266 0 0
0.928743 0.579799 0
1 0.62857 0
1 1 0
0 1 0
0 0 0
0 0 0
1 0 0
1 1 0
0 1 0
0 0 0
0.95138 0 0
1 0 0
1 0.111328 0
0.981976 0.0746355 0
0.95138 0 0
0 0 0
1 0 0
1 1 0
0 1 0
0 0 0
0 0 0
1 0 0
1 1 0
0 1 0
0 0 0
0 0 0
1 0 0
1 1 0
0 1 0
0 0 0
0.928418 0 0
1 0 0
1 0.0956545 0
0.928418 0 0
0 0 0
1 0 0
1 1 0
0 1 0
0 0 0
0 0 0
0.240223 0 0
1 0.609486 0
1 1 0
0 1 0
0 0 0
0 0 0
1 0 0
1 1 0
0 1 0
0 0 0
0.950723 0 0
1 0 0
1 0.0636376 0
0.950723 0 0
0 0 0
1 0 0
1 1 0
0 1 0
0 0 0
0 0 0
1 0 0
1 1 0
0 1 0
0 0 0
0 0.0636448 0
0.241866 0.20752 0
0.907423 0.616083 0
1 0.675777 0
1 1 0
0 1 0
0 0.0636448 0
0 0 0
1 0 0
1 1 0
0 1 0
0 0 0
0.990284 0 0
1 0 0
1 0.014496 0
0.990284 0 0
0 0 0
1 0 0
1 1 0
0 1 0
0 0 0
0 0 0
1 0 0
1 1 0
0 1 0
0 0 0
0 0 0
1 0 0
1 1 0
0 1 0
0 0 0
0 0 0
0.0145643 0 0
0.250292 0.151745 0
0.679271 0.43553 0
1 0.656464 0
1 1 0
0 1 0
0 0 0
0 0 0
1 0 0
1 1 0
0 1 0
0 0 0
0 0 0
1 0 0
1 1 0
0 1 0
0 0 0
0 0.0696105 0
0.19648 0.177381 0
0.673054 0.446737 0
1 0.638956 0
1 1 0
0 1 0
0 0.0696105 0
0 0 0
1 0 0
1 1 0
0 1 0
0 0 0
0 0 0
1 0 0
1 1 0
0 1 0
0 0 0
0.987847 0 0
1 0 0
1 0.0124729 0
0.987847 0 0
0 0 0
1 0 0
1 1 0
0 1 0
0 0 0
0 0 0
1 0 0
1 1 0
0 1 0
0 0 0
0 0 0
1 0 0
1 1 0
0 1 0
0 0 0
0.970752 0 0
1 0 0
1 0.0409969 0
0.970752 0 0
0 0 0
1 0 0
1 1 0
0 1 0
0 0 0
0 0 0
0.0709545 0 0
0.276409 0.235129 0
0.328297 0.296351 0
0.906164 1 0
0 1 0
0 0 0
0 0 0
1 0 0
1 1 0
0 1 0
0 0 0
0 0 0
1 0 0
1 1 0
0 1 0
0 0 0
0 0 0
1 0 0
1 1 0
0 1 0
0 0 0
0.910232 0 0
1 0 0
1 0.186232 0
0.910232 0 0
0 0 0
1 0 0
1 1 0
0 1 0
0 0 0
0.926704 0 0
1 0 0
1 0.11728 0
0.926704 0 0
0 0 0
1 0 0
1 1 0
0 1 0
0 0 0
0.925595 0 0
1 0 0
1 0.127993 0
0.925595 0 0
0 0 0
1 0 0
1 1 0
0 1 0
0 0 0
0 0 0
1 0 0
1 1 0
0 1 0
0 0 0
0 0 0
0.0487256 0 0
0.263 0.233787 0
0.319015 0.296732 0
0.925997 1 0
0 1 0
0 0 0
0 0 0
1 0 0
1 1 0
0 1 0
0 0 0
0.885939 0 0
1 0 0
1 0.24027 0
0.885939 0 0
0 0 0
1 0 0
1 1 0
0 1 0
0 0 0
0 0 0
1 0 0
1 1 0
0 1 0
0 0 0
0 0 0
1 0 0
1 1 0
0 1 0
0 0 0
0 0 0
1 0 0
1 1 0
0 1 0
0 0 0
0 0 0
0.157985 0 0
0.408406 0.309159 0
0.950947 1 0
0 1 0
0 0 0
0.888083 0 0
1 0 0
1 0.213941 0
0.888083 0 0
0 0 0
1 0 0
1 1 0
0 1 0
0 0 0
0 0 0
1 0 0
1 1 0
0 1 0
0 0 0
0 0 0
0.346624 0 0
0.756163 0.61319 0
0.880583 0.806886 0
1 0.997196 0
1 1 0
0 1 0
0 0 0
0 0 0
1 0 0
1 1 0
0 1 0
0 0 0
0 0 0
1 0 0
1 1 0
0 1 0
0 0 0
0 0 0
1 0 0
1 1 0
0 1 0
0 0 0
0.926097 0 0
1 0 0
1 0.239724 0
0.985412 0.196731 0
0.926097 0 0
0 0 0
1 0 0
1 1 0
0 1 0
0 0 0
0 0.0477653 0
0.240036 0.237802 0
1 0.871979 0
1 1 0
0 1 0
0 0.0477653 0
0 0 0
1 0 0
1 1 0
0 1 0
0 0 0
0.95165 0 0
1 0 0
1 0.0929549 0
0.95165 0 0
0 0 0
1 0 0
1 1 0
0 1 0
0 0 0
0 0.139033 0
0.271145 0.292613 0
0.773428 0.588454 0
1 0.730839 0
1 1 0
0 1 0
0 0.139033 0
0 0 0
1 0 0
1 1 0
0 1 0
0 0 0
0.957557 0 0
1 0 0
1 0.0695331 0
0.957557 0 0
0 0 0
1 0 0
1 1 0
0 1 0
0 0 0
0 0 0
1 0 0
1 1 0
0 1 0
0 0 0
0.978179 0 0
1 0 0
1 0.058345 0
0.978179 0 0
0 0 0
1 0 0
1 1 0
0 1 0
0 0 0
0 0 0
0.14213 0 0
0.403403 0.309777 0
0.968193 1 0
0 1 0
0 0 0
0 0 0
1 0 0
1 1 0
0 1 0
0 0 0
0 0 0
1 0 0
1 1 0
0 1 0
0 0 0
0 0 0
1 0 0
1 1 0
0 1 0
0 0 0
0 0 0
1 0 0
1 1 0
0 1 0
0 0 0
0.99691 0 0
1 0 0
1 0.00475202 0
0.99691 0 0
0 0 0
1 0 0
1 1 0
0 1 0
0 0 0
0 0 0
0.287623 0 0
0.41928 0.176043 0
1 0.990953 0
1 1 0
0 1 0
0 0 0
0 0 0
1 0 0
1 1 0
0 1 0
0 0 0
0.995516 0 0
1 0 0
1 0.0100297 0
0.995516 0 0
0 0 0
1 0 0
1 1 0
0 1 0
0 0 0
0 0.0648614 0
0.173991 0.19161 0
0.704336 0.587716 0
1 0.823403 0
1 1 0
0 1 0
0 0.0648614 0
0 0 0
1 0 0
1 1 0
0 1 0
0 0 0
0.976305 0 0
1 0 0
1 0.0565162 0
0.976305 0 0
0 0 0
1 0 0
1 1 0
0 1 0
0 0 0
0 0 0
1 0 0
1 1 0
0 1 0
0 0 0
0 0.0403636 0
0.252292 0.293819 0
0.756909 0.817166 0
0.920895 1 0
0 1 0
0 0.0403636 0
0 0 0
1 0 0
1 1 0
0 1 0
0 0 0
0 0 0
1 0 0
1 1 0
0 1 0
0 0 0
0 0.0688791 0
0.240171 0.29357 0
0.763058 0.798131 0
0.957292 1 0
0 1 0
0 0.0688791 0
0 0 0
1 0 0
1 1 0
0 1 0
0 0 0
0 0 0
1 0 0
1 1 0
0 1 0
0 0 0
0 0 0
1 0 0
1 1 0
0 1 0
0 0 0
0 0 0
0.0251555 0 0
0.247695 0.232256 0
0.308154 0.297177 0
0.943527 1 0
0 1 0
0 0 0
0 0 0
1 0 0
1 1 0
0 1 0
0 0 0
0 0 0
1 0 0
1 1 0
0 1 0
0 0 0
0.682598 0 0
1 0 0
1 0.446456 0
0.957059 0.388926 0
0.682598 0 0
0 0 0
1 0 0
1 1 0
0 1 0
0 0 0
0 0 0
1 0 0
1 1 0
0 1 0
0 0 0
0 0.227494 0
0.246714 0.413938 0
0.966622 1 0
0 1 0
0 0.227494 0
0.837363 0.180541 0
0.734978 0 0
1 0 0
1 0.437258 0
0.892514 0.271597 0
0.837363 0.180541 0
0 0 0
1 0 0
1 1 0
0 1 0
0 0 0
0 0.116882 0
0.182226 0.280484 0
0.773767 0.827669 0
0.948795 1 0
0 1 0
0 0.116882 0
0 0 0
1 0 0
1 1 0
0 1 0
0 0 0
0 0 0
1 0 0
1 1 0
0 1 0
0 0 0
0.738803 0 0
1 0 0
1 0.268838 0
0.836073 0.106591 0
0.738803 0 0
0 0 0
1 0 0
1 1 0
0 1 0
0 0 0
0 0.182226 0
0.145389 0.298778 0
0.577984 0.655863 0
0.975598 1 0
0 1 0
0 0.182226 0
0 0 0
1 0 0
1 1 0
0 1 0
0 0 0
0 0 0
1 0 0
1 1 0
0 1 0
0 0 0
0.697929 0 0
1 0 0
1 0.37544 0
0.697929 0 0
0 0 0
1 0 0
1 1 0
0 1 0
0 0 0
0 0 0
0.0703331 0 0
0.319099 0.266501 0
0.552259 0.523643 0
0.967299 1 0
0 1 0
0 0 0
0 0 0
1 0 0
1 1 0
0 1 0
0 0 0
0 0 0
1 0 0
1 1 0
0 1 0
0 0 0
0 0 0
1 0 0
1 1 0
0 1 0
0 0 0
0 0 0
1 0 0
1 1 0
0 1 0
0 0 0
0.589711 0 0
1 0 0
1 0.412805 0
0.589711 0 0
0 0 0
1 0 0
1 1 0
0 1 0
0 0 0
0 0 0
0.274484 0 0
0.409703 0.174671 0
1 0.974064 0
1 1 0
0 1 0
0 0 0
0 0 0
1 0 0
1 1 0
0 1 0
0 0 0
0 0 0
1 0 0
1 1 0
0 1 0
0 0 0
0 0 0
1 0 0
1 1 0
0 1 0
0 0 0
0.845091 0.17814 0
0.755266 0 0
1 0 0
1 0.450341 0
0.895464 0.271169 0
0.845091 0.17814 0
0 0 0
1 0 0
1 1 0
0 1 0
0 0 0
0 0 0
1 0 0
1 1 0
0 1 0
0 0 0
0 0 0
0.11569 0 0
0.397657 0.310486 0
1 0.99348 0
1 1 0
0 1 0
0 0 0
0 0 0
1 0 0
1 1 0
0 1 0
0 0 0
0 0 0
1 0 0
1 1 0
0 1 0
0 0 0
0 0 0
1 0 0
1 1 0
0 1 0
0 0 0
0 0.0956068 0
0.22508 0.293259 0
0.767562 0.784189 0
0.988626 1 0
0 1 0
0 0.0956068 0
0.71415 0 0
1 0 0
1 0.335794 0
0.71415 0 0
0 0 0
1 0 0
1 1 0
0 1 0
0 0 0
0 0.0933071 0
0.223042 0.293217 0
0.764596 0.793371 0
0.972301 1 0
0 1 0
0 0.0933071 0
0 0 0
1 0 0
1 1 0
0 1 0
0 0 0
0 0 0
1 0 0
1 1 0
0 1 0
0 0 0
0.745046 0 0
1 0 0
1 0.282051 0
0.835966 0.107104 0
0.745046 0 0
0 0 0
1 0 0
1 1 0
0 1 0
0 0 0
0 0.0338089 0
0.212183 0.228704 0
0.285749 0.298096 0
1 0.991104 0
1 1 0
0 1 0
0 0.0338089 0
0 0 0
1 0 0
1 1 0
0 1 0
0 0 0
0 0 0
1 0 0
1 1 0
0 1 0
0 0 0
0.819453 0.0210416 0
0.811465 0 0
1 0 0
1 0.449763 0
0.934408 0.301273 0
0.819453 0.0210416 0
0 0 0
1 0 0
1 1 0
0 1 0
0 0 0
0 0 0
1 0 0
1 1 0
0 1 0
0 0 0
0 0.0738579 0
0.167231 0.192368 0
0.705225 0.583342 0
1 0.812403 0
1 1 0
0 1 0
0 0.0738579 0
0 0 0
1 0 0
1 1 0
0 1 0
0 0 0
0.840213 0 0
1 0 0
1 0.370818 0
0.964755 0.293364 0
0.840213 0 0
0 0 0
1 0 0
1 1 0
0 1 0
0 0 0
0 0 0
1 0 0
1 1 0
0 1 0
0 0 0
0 0.0831434 0
1 0.757978 0
1 1 0
0 1 0
0 0.0831434 0
0 0 0
1 0 0
1 1 0
0 1 0
0 0 0
0 0 0
1 0 0
1 1 0
0 1 0
0 0 0
0.728674 0 0
1 0 0
1 0.33958 0
0.728674 0 0
0 0 0
1 0 0
1 1 0
0 1 0
0 0 0
0 0.18427 0
0.312865 0.370191 0
0.662397 0.587283 0
1 0.805414 0
1 1 0
0 1 0
0 0.18427 0
0 0 0
1 0 0
1 1 0
0 1 0
0 0 0
0 0 0
1 0 0
1 1 0
0 1 0
0 0 0
0.82052 0.0193521 0
0.813777 0 0
1 0 0
1 0.47968 0
0.926478 0.299906 0
0.82052 0.0193521 0
0 0 0
1 0 0
1 1 0
0 1 0
0 0 0
0 0.0917425 0
0.15083 0.194208 0
0.705769 0.580661 0
1 0.799967 0
1 1 0
0 1 0
0 0.0917425 0
0 0 0
1 0 0
1 1 0
0 1 0
0 0 0
0 0 0
0.00216874 0 0
0 0.00270835 0
0 0 0
0 0 0
1 0 0
1 1 0
0 1 0
0 0 0
0 0 0
1 0 0
1 1 0
0 1 0
0 0 0
0 0.102111 0
1 0.746574 0
1 1 0
0 1 0
0 0.102111 0
0 0 0
1 0 0
1 1 0
0 1 0
0 0 0
0.76699 0 0
1 0 0
1 0.28383 0
0.838814 0.0934831 0
0.76699 0 0
0 0.14998 0
0.279119 0.278571 0
1 0.624242 0
1 1 0
0 1 0
0 0.14998 0
0 0 0
1 0 0
1 1 0
0 1 0
0 0 0
0 0 0
1 0 0
1 1 0
0 1 0
0 0 0
0.60384 0 0
1 0 0
1 0.466795 0
0.968326 0.432269 0
0.906801 0.36225 0
0.60384 0 0
0 0 0
1 0 0
1 1 0
0 1 0
0 0 0
0 0.108102 0
0.205131 0.216659 0
0.906086 0.599502 0
1 0.653624 0
1 1 0
0 1 0
0 0.108102 0
0 0 0
1 0 0
1 1 0
0 1 0
0 0 0
0 0 0
1 0 0
1 1 0
0 1 0
0 0 0
0.73277 0.0654879 0
0.688806 0 0
1 0 0
1 0.438547 0
0.938643 0.356415 0
0.73277 0.0654879 0
0 0 0
1 0 0
1 1 0
0 1 0
0 0 0
0 0 0
0.0443666 0 0
0 0.0588736 0
0 0 0
0 0.0921369 0
0.219029 0.213201 0
0.90656 0.605383 0
1 0.661525 0
1 1 0
0 1 0
0 0.0921369 0
0 0 0
1 0 0
1 1 0
0 1 0
0 0 0
0.718037 0 0
1 0 0
1 0.468118 0
0.949543 0.388611 0
0.718037 0 0
0 0 0
1.77154e-05 0 0
0 2.06694e-05 0
0 0 0
0 0.100956 0
0.0108094 0.107284 0
1 0.699091 0
1 1 0
0 1 0
0 0.100956 0
0 0 0
1 0 0
1 1 0
0 1 0
0 0 0
0 0 0
0.0290091 0 0
0 0.0352442 0
0 0 0
0 0 0
1 0 0
1 1 0
0 1 0
0 0 0
0.655202 0 0
1 0 0
1 0.46163 0
0.976046 0.430984 0
0.655202 0 0
0 0.118184 0
1 0.690681 0
1 1 0
0 1 0
0 0.118184 0
0 0 0
1 0 0
1 1 0
0 1 0
0 0 0
0 0 0
1 0 0
1 1 0
0 1 0
0 0 0
0 0 0
1 0 0
1 1 0
0 1 0
0 0 0
0.560175 0 0
1 0 0
1 0.477496 0
0.861751 0.334518 0
0.656944 0.111095 0
0.560175 0 0
0 0 0
1 0 0
1 1 0
0 1 0
0 0 0
0 0 0
0.161444 0 0
1 0.976845 0
1 1 0
0 1 0
0 0 0
0.734049 0.0623873 0
0.696678 0 0
1 0 0
1 0.476439 0
0.920158 0.357113 0
0.734049 0.0623873 0
0 0.168246 0
0.546932 0.489922 0
0.732528 0.605469 0
[...]
CELL_DATA 5974
FIELD FieldData 3
weight 1 5974 float
 0.97796 0.978247 0.984285 0.98442 0.97833 0.984596 0.98416 0.978001 0.984157 0.778143 0.990516 0.99083 0.990844 0.996883 0.990563 0.790537 0.996835 0.997027 1.17837 1.00301 1.00293 0.778359 0.98433 0.990391 0.984579 0.996708 1.18419 0.796876 0.996674 1.00301 1.17806 0.990842 0.790552 0.990589 0.996962 0.990566 0.784188 0.990709 1.17808 1.00304 0.784328 0.996877 1.00336 1.18441 1.00304 0.771646 1.0033 1.0096 1.00941 1.1844 1.00926 1.00932 1.17815 1.01541 1.01568 0.759447 1.01575 1.02172 0.965453 0.778367 0.965838 1.17196 0.965792 0.971846 0.971956 0.803069 0.972003 0.790435 0.959402 0.796629 0.971696 0.965609 1.17804 0.978291 0.803123 0.978147 0.977883 0.984465 0.978282 1.17823 0.809158 0.978124 0.984156 1.18428 0.990794 0.990755 0.984324 0.797074 0.990473 1.1844 0.984279 0.790831 0.984536 1.18427 0.990472 0.78426 0.990438 0.996673 0.778242 0.965446 1.18425 0.971991 0.965705 0.978213 0.971824 0.771953 0.977965 1.19054 0.971809 0.778178 0.96539 1.19071 0.971808 0.78425 0.971648 0.978287 1.18414 0.984513 0.977988 1.1908 0.984263 0.984322 0.984378 1.18454 0.990453 0.990865 0.853217 0.990396 0.98433 1.19667 0.84075 0.990742 1.19063 0.990389 0.997106 0.828148 0.996631 1.19674 0.996994 0.996965 0.84081 0.996757 1.19044 0.997 1.0029 1.00307 0.996827 0.859465 1.00324 1.19085 0.996765 1.00312 1.0031 0.840675 1.00917 1.00952 1.19693 1.00959 1.01573 1.00957 1.19686 0.834521 1.01583 1.19673 1.022 1.00958 0.834144 1.01566 1.19665 1.0094 1.01558 0.821899 1.02163 1.01586 1.18416 1.02195 0.815762 0.997103 1.00295 1.18419 1.00312 0.996646 0.834508 1.00922 1.1842 1.00943 1.00311 0.828035 1.003 1.19038 1.00329 0.728012 1.00954 1.00919 1.19085 1.0157 0.834416 1.19086 1.00916 1.01577 0.865537 1.01584 1.18428 1.02202 1.02805 0.846761 1.0221 0.734127 1.18417 1.01569 0.853065 0.728323 1.19081 1.02187 0.728086 1.01564 0.859236 1.19042 1.02201 1.02809 1.02182 0.871672 1.02788 1.1904 0.859216 1.19064 0.865598 0.709412 1.19692 0.846914 1.19684 0.84701 1.19707 0.721653 0.828143 1.19676 0.840692 0.703047 1.1906 0.852998 1.19687 0.846948 0.728257 1.19669 0.834197 1.19697 0.721657 0.809375 1.19678 0.796693 1.15927 0.803191 0.815641 1.15956 0.821897 0.740491 1.16547 0.809259 1.17211 0.803357 1.17211 0.790573 1.16581 0.784391 1.16576 1.16542 1.16562 0.784594 0.709449 0.79673 0.728155 1.1719 0.721665 1.16572 0.734323 0.796985 1.17169 0.734559 0.790775 1.16574 0.728334 0.790764 1.17207 0.734145 0.821988 0.734213 1.17166 0.74082 0.727996 1.17803 0.828067 0.728255 0.740411 1.17799 0.815663 1.17817 0.734244 0.746993 0.834135 1.17811 0.734387 1.17171 0.734283 0.746706 0.822072 1.17171 0.746727 1.17799 0.821631 0.765856 0.740585 1.17804 0.803241 1.17187 0.740624 1.16542 0.753136 0.815495 1.17209 1.17816 0.809532 0.759466 1.17199 1.17176 1.17196 0.797117 1.16562 0.753375 1.17205 0.803091 1.17832 1.17168 0.753031 1.17809 0.80951 0.746832 1.17174 0.802911 1.17811 0.809263 0.740708 1.17824 0.753365 0.765624 0.928339 1.18439 0.753265 1.18444 0.759458 1.17834 1.17808 0.928132 0.759433 1.18446 1.18422 0.765393 1.18416 0.74701 0.921757 1.18413 0.746765 1.18462 0.753072 0.934133 1.19064 0.753344 1.18435 0.9344 0.728118 0.759317 1.19086 0.740874 0.753311 1.1782 0.915789 0.734428 1.18428 0.759422 0.909572 0.71586 1.17817 1.18441 0.921693 1.18454 0.915584 1.19041 0.915629 1.1842 0.940849 1.19062 0.94665 1.19701 0.928048 1.19702 0.728169 0.940684 1.1968 0.953341 1.19672 0.953341 1.19085 0.946719 1.19057 0.922109 0.721986 0.74694 1.19047 0.722007 0.921956 0.722091 0.747061 1.19677 0.728232 0.934574 0.740729 0.734207 1.19683 0.940692 0.734422 1.18427 0.752889 0.728078 1.18436 0.928226 0.75297 1.19058 0.728339 0.928301 0.765865 1.19079 0.934306 0.734483 0.90913 0.75932 0.721851 0.75923 0.903018 0.727902 1.18454 0.902925 0.734561 0.915618 1.1908 0.759546 0.721894 0.909595 1.17819 0.727893 0.753014 0.909172 1.19062 0.734127 0.765558 1.18446 0.89074 0.740575 0.765729 1.18429 0.884437 0.734209 0.890391 0.778352 0.740441 1.19064 0.896805 0.771826 1.18425 0.897053 1.19711 0.89057 0.709355 0.77164 1.19062 0.722094 1.19687 0.778322 0.72181 0.896649 1.19702 0.790874 0.921884 1.19666 0.915398 0.784139 0.709449 0.928199 0.790726 1.19712 0.721829 0.921815 0.784255 0.71546 1.19081 0.90312 0.771895 0.728061 0.902894 0.721875 0.909199 0.778255 0.734611 1.19056 0.772076 0.728272 0.903115 0.734325 0.790489 0.90936 0.7344 1.19694 0.915689 0.78449 1.19696 0.740868 1.19675 0.915669 0.734156 0.78431 1.19696 0.727936 1.02788 1.02824 1.02825 0.909215 1.02803 0.79692 0.959615 1.04059 1.03441 0.734199 0.953117 1.03413 0.803001 1.02799 1.03456 0.965765 1.04073 1.03449 0.965434 0.959315 0.740522 0.959528 1.04688 1.04044 0.802927 1.04683 0.746736 1.0407 0.953245 1.04676 1.05326 1.05325 0.946741 0.797085 0.740658 1.0404 0.940507 1.04067 1.04059 1.04703 0.746686 1.04682 0.940462 1.04708 1.03416 1.03432 0.753038 1.02169 0.815395 1.04074 0.934243 1.03428 0.740483 0.947029 1.02822 0.959151 1.02163 0.740773 1.028 0.815566 1.03452 1.02832 1.02796 0.959603 0.803038 0.971664 0.74664 0.971844 1.04709 0.965511 1.04075 0.972014 1.05303 0.978321 0.740782 0.796685 1.05326 1.04682 1.03452 0.746791 0.978354 0.965808 0.97169 0.796682 0.965771 1.03449 0.978118 0.809215 0.972051 1.04076 0.978071 1.04038 0.747101 0.809496 1.04701 1.04053 0.928081 1.04081 0.80925 0.753083 1.05931 0.928116 0.803296 1.05291 1.05954 1.06543 1.06572 0.921759 0.778368 0.752928 1.06545 1.06557 1.05956 0.934232 0.746789 1.05939 1.05321 0.772053 1.07185 0.752881 1.06568 0.940707 1.06539 1.05949 0.740586 1.0719 0.777988 1.07796 0.934483 1.07169 0.746649 1.07181 1.07797 0.934282 1.07815 1.08418 0.753065 0.765667 1.07163 0.921756 1.07835 0.784477 0.753297 1.06581 1.07808 0.915671 1.08446 1.07164 0.759569 0.790518 1.05337 1.05932 0.92807 1.05915 0.784257 1.05313 0.752882 1.06567 0.772003 0.921845 1.05926 1.05956 1.05336 0.952953 1.05297 0.759218 1.04674 0.765429 0.946675 1.06552 0.759269 1.05925 1.07189 1.06586 0.759504 1.07796 0.772009 1.07187 0.946735 0.765469 1.0779 1.07191 1.06582 1.06587 0.759295 0.772081 1.08435 0.9405 1.07188 1.07206 0.765799 1.02197 1.02183 0.77822 1.02202 0.759338 0.959469 1.03437 1.02794 0.76543 1.02799 0.777984 1.01571 0.947022 0.765844 1.0096 1.01585 1.02183 0.790565 1.02165 0.771712 1.04067 1.03451 1.04693 0.953271 0.784208 1.04703 0.771856 1.04072 1.0344 1.02809 0.790464 1.02794 0.771817 0.940485 1.02181 0.796851 1.04087 0.934502 1.03418 0.777882 0.803149 1.02819 1.00929 0.934612 0.75291 1.00923 0.803034 1.00311 1.01586 1.00941 1.01548 0.790695 0.753249 1.00323 0.996728 0.928329 0.990554 0.803278 1.00318 0.7471 1.00925 0.809235 1.00304 0.946702 0.996833 0.753221 1.02826 0.797116 1.0217 1.01559 0.759595 1.03434 0.797009 1.028 0.934573 1.00922 0.759244 1.01573 0.796655 1.01561 1.00925 0.765517 1.0221 0.884549 1.02201 1.01578 0.809352 1.05315 0.759601 0.878322 0.815438 1.05314 1.04669 1.05323 0.871943 1.05917 0.803218 0.759618 1.05942 0.865814 1.05328 0.803336 1.04663 0.746725 1.04065 0.890639 1.04688 1.03413 0.759315 0.878118 1.04695 1.05335 1.05301 0.871999 1.05927 0.7658 0.853109 1.06548 1.0658 0.772085 0.859532 1.07209 1.07163 1.0595 0.840624 0.76544 1.05955 1.0594 0.865456 1.06559 0.765471 1.06553 0.846846 1.06567 0.771986 1.04048 1.03413 0.859541 1.04705 1.04044 0.765618 0.896863 1.02808 1.02195 1.02799 0.771774 0.884458 1.03433 1.0406 0.778288 1.02792 1.03458 0.722035 0.878214 1.05288 1.05333 0.778208 0.903179 1.04667 1.05923 0.753359 1.06543 0.784587 0.890795 1.05957 0.747049 0.884586 1.04697 1.04686 0.77801 1.04058 0.753265 0.865537 1.03461 0.771878 1.05311 0.872021 1.04087 1.05333 0.778147 1.08449 0.865396 1.09047 0.771743 1.08447 1.09051 0.778057 1.0905 1.09054 0.759145 1.08435 0.784286 1.07796 0.853106 1.0968 0.790395 1.08442 0.765794 1.09044 1.09663 0.784136 0.8782 1.09684 0.759255 1.10318 0.79054 0.871922 1.10932 1.10336 1.09696 0.75329 1.09695 1.09068 1.10302 0.82792 1.09674 0.740457 1.10313 1.08415 1.09067 1.07826 0.759188 0.840798 1.08439 0.752982 1.09058 1.09706 0.828066 1.07821 0.746846 1.0782 1.08414 0.84667 1.0844 0.746816 1.09689 1.0969 1.09078 1.10303 0.834412 0.709471 1.10337 1.10332 1.09676 1.09079 0.840606 1.10334 1.09677 1.10928 0.722082 1.10956 1.12167 0.83459 1.11543 0.715616 1.12173 0.721791 1.1158 0.815603 1.11571 1.10933 1.10943 0.815764 1.10326 1.11562 0.809302 1.10918 0.703272 1.11543 1.12798 0.715682 1.12795 1.1221 0.822028 1.12202 1.13452 1.13459 1.12824 1.12196 0.753127 1.12205 0.815394 1.11552 1.12835 0.753229 1.12813 1.12171 0.821664 1.10943 1.10924 1.10946 1.11586 0.759141 1.11558 0.728134 1.10322 0.859343 1.1155 0.753192 1.10298 0.852994 1.10922 1.10306 0.721826 0.752955 1.12177 1.12207 1.1221 0.846872 0.753303 0.740858 1.10949 0.859374 1.12799 1.11585 1.10943 1.10933 1.1279 1.11573 0.765496 0.752985 0.853154 0.740663 0.759215 0.746858 1.07806 0.759316 0.847054 0.734212 1.078 0.759577 1.07178 0.840863 0.728254 1.08436 1.09058 1.07798 0.765751 1.07207 0.734473 1.07196 0.828285 1.07827 1.078 0.759136 0.740766 1.07796 0.821707 0.765544 1.08458 0.828321 0.746821 1.09044 0.765776 1.09688 1.0908 0.753364 1.09039 1.09675 0.83452 0.771907 0.75321 1.10294 1.0971 0.746747 0.840397 1.08414 1.08425 0.765653 1.0906 1.08461 0.778252 0.771674 1.08448 0.828078 1.08423 1.072 0.765489 1.06559 1.06577 0.772119 0.834336 1.07182 0.759569 1.07188 1.05933 1.04691 0.772036 0.79044 1.05302 0.834172 1.05933 0.76563 1.06547 1.05913 1.05921 0.784156 0.772038 0.915742 1.07826 0.784241 1.07166 0.771838 0.890787 1.07187 1.07791 0.790497 1.07824 0.77169 1.09044 1.08413 1.07803 0.777895 1.06539 0.778166 1.06562 0.896848 1.07822 1.07211 0.777982 0.765806 1.06568 0.921668 0.784418 1.0969 0.77197 1.11562 0.896831 0.77792 0.759372 1.09693 1.10332 0.765855 0.903031 1.10295 0.790412 1.09086 1.09666 0.784163 1.09074 0.88445 1.10294 0.784475 1.10325 0.778155 0.890462 1.12208 0.777941 1.10929 0.878083 1.1096 0.78451 1.1155 0.802976 1.12823 0.865678 1.11542 1.10945 0.796839 1.10962 0.897116 1.10947 1.11556 1.11541 0.79705 0.87196 1.11575 1.09695 0.884529 1.08423 1.0904 0.796955 0.7531 1.10332 0.92821 1.09087 1.09709 1.08425 0.75921 0.809424 1.07194 0.915663 1.09692 0.759212 0.802905 0.909225 1.08417 0.759349 1.09043 0.790679 0.903071 0.765396 1.08449 0.909289 0.790744 0.765668 1.09708 0.784134 1.10305 0.921871 1.10305 1.10945 1.09059 0.759184 0.803317 0.915421 0.759598 0.796638 1.10289 0.890804 0.759498 0.802993 1.09062 0.765793 0.903141 1.10957 0.759423 1.09671 0.884219 0.772112 0.753136 1.09674 0.98433 0.909589 0.984175 0.765404 0.98446 0.765568 0.99066 0.896957 0.996692 0.990771 0.772018 0.990828 0.777999 0.978203 0.984621 0.890447 0.984601 0.778237 0.771677 0.990389 1.00306 0.771835 0.778077 0.859317 0.996645 0.997017 1.01574 0.78432 1.00925 0.771838 1.00333 0.853295 0.990813 0.784386 0.996906 0.75915 0.997109 1.00331 0.859303 0.771866 0.759303 0.765731 0.984262 0.771731 0.865652 1.00316 0.778239 0.765637 0.76555 0.872083 0.778165 0.965779 0.771915 0.77177 0.865694 0.784145 0.772036 0.953263 0.778248 0.84673 0.778058 0.784326 0.784459 0.840693 0.959517 0.790768 0.790695 0.840836 0.790756 0.971892 0.784432 0.796869 0.790568 0.853047 0.790639 0.965436 0.796784 0.784436 0.846783 0.790449 0.778033 0.846892 0.778205 0.947083 0.796776 0.790819 0.878084 0.7843 0.80303 0.940755 0.784261 0.790628 0.877933 0.777886 0.952934 0.834414 0.872023 0.796979 0.78446 0.821744 0.884203 0.959204 0.803013 0.828007 0.790744 0.8846 0.82208 0.953052 0.797016 0.840795 0.878191 0.834602 0.803317 0.865758 0.803165 0.978215 0.853026 0.840522 0.809571 0.828253 0.977911 0.809236 0.853372 0.815675 0.809219 0.815406 0.821786 0.965675 0.865699 0.765863 0.815726 0.971974 0.872115 0.771671 0.984168 0.834518 0.772005 0.859382 0.972024 0.834433 0.777945 0.978126 0.859464 0.778222 0.827908 0.965598 0.859276 0.77791 0.846897 0.959549 0.865796 0.853098 0.77163 0.846726 0.78436 0.965756 0.878092 0.853313 0.778229 0.778175 0.871662 0.959427 0.859549 0.784587 0.971835 0.859236 0.878117 0.784246 0.846962 0.971772 1.02211 0.784488 1.01574 0.865862 1.00957 0.79084 1.02803 0.840761 1.01586 1.02207 1.0221 0.78421 0.84068 0.884431 1.00933 0.846958 1.00924 0.790616 0.890577 0.990431 0.790584 1.01555 0.853101 0.890425 0.784516 1.0033 0.79043 0.903232 0.997091 0.85948 0.796998 1.0154 1.03439 0.796898 1.03451 0.89668 1.02791 1.02816 0.85322 1.04042 0.796784 1.04038 0.821893 0.89684 0.790672 1.03432 0.815579 0.897077 0.796941 0.821923 1.02194 0.796625 0.903161 1.02168 0.802998 0.815849 0.809189 1.00923 0.8782 0.803124 1.02789 0.834217 0.78422 1.02799 0.890474 0.784429 1.01557 0.796724 0.884205 0.990536 0.828237 0.790626 0.984247 0.790638 0.890493 0.996981 0.834202 0.797119 0.88433 0.828068 0.79052 0.990751 0.896887 0.815485 0.802908 0.977935 0.809623 0.90923 0.984322 0.796948 0.915553 0.822015 0.796809 0.978089 0.828246 0.903191 0.803222 0.965592 0.821834 0.802955 0.828256 0.803257 0.990784 0.915837 0.809319 0.971898 0.846627 0.796921 0.909158 0.984245 0.840563 0.921834 0.803344 1.00295 0.840444 0.921747 0.809285 1.00914 0.852991 0.90934 0.809367 0.996996 0.815535 0.852921 0.902979 1.01553 0.846698 0.815611 0.915863 0.853361 0.821989 1.00324 0.809208 1.00337 0.915432 0.840657 0.815496 0.997121 0.834298 0.990541 0.815531 0.909545 0.978021 0.84062 0.821773 0.91555 0.99665 0.828116 0.840659 0.984457 0.821676 0.921764 0.83454 0.940556 0.821974 0.846699 0.940559 0.797097 0.803106 0.928279 0.853202 0.80314 0.921959 0.947085 0.809499 0.846686 0.922117 0.809622 0.92803 0.934505 0.809224 0.865786 0.809437 0.915745 0.865399 0.946856 0.80331 0.871664 0.81576 0.922037 0.809562 0.871752 0.896893 0.921829 0.815673 0.909507 0.878357 0.934307 0.921837 0.822089 0.915582 0.878225 0.815814 0.877938 0.928304 0.80915 0.928164 0.815559 0.86563 0.940526 0.909355 0.815875 0.865503 0.821805 0.815791 0.865429 0.94041 0.90935 0.859204 0.827968 0.927961 0.871703 0.821801 0.953091 0.878223 0.953148 0.821691 0.878292 0.828353 0.934528 0.934573 0.822122 0.940755 0.871738 0.940489 0.834386 0.959268 0.959354 0.828287 0.884577 0.94682 0.89678 0.834281 0.890579 0.940384 0.821719 0.953043 0.884339 0.890781 0.890539 0.827925 0.927885 0.890494 0.828284 0.909526 0.897047 0.896845 0.821843 0.921674 0.902934 0.828309 0.89053 0.934172 0.834374 0.884185 0.896868 0.834209 0.884405 0.928035 0.903236 0.827887 0.897109 0.8971 0.921735 0.834449 0.903255 0.890446 0.840817 0.903164 0.865543 0.890504 0.92823 0.834275 0.859211 0.915646 0.840838 0.859146 0.92831 0.890454 0.834279 0.871918 0.927947 0.896698 0.834416 0.865434 0.921937 0.840392 0.93432 0.903209 0.87189 0.840708 0.934437 0.859185 0.89671 0.859373 0.840573 0.909511 0.852994 0.846755 0.903326 0.865789 0.909492 0.840706 0.871783 0.877932 0.928039 0.852893 0.865565 0.846867 0.915504 0.871649 0.846662 0.884504 0.915647 0.859609 0.86563 0.878276 0.934193 0.852996 0.878348 0.884447 0.934517 0.859187 0.884461 0.890685 0.702917 0.940383 0.890784 0.715851 0.871815 0.940534 0.884175 0.947004 0.715795 0.878161 0.959233 0.890439 0.915853 0.71587 0.87829 0.909595 0.934365 0.871788 0.703049 0.946855 0.902998 0.871739 0.915466 0.878089 0.94084 0.703224 0.921858 0.890474 0.953102 0.715779 0.884294 0.909493 0.946644 0.72814 0.89085 0.896942 0.959281 0.728299 0.884157 0.722026 0.884512 0.81542 0.947113 0.728203 0.815498 0.87815 0.971693 0.746708 0.809568 0.978161 0.902918 0.740771 0.822009 0.946807 0.746764 0.890444 0.821995 0.734178 0.822016 0.952897 0.884425 0.753278 0.815437 0.959232 0.752924 0.953092 0.809166 0.897003 0.740621 0.81558 0.965867 0.809212 0.953243 0.747053 0.822074 0.740554 0.946697 0.959184 0.822008 0.953016 0.759602 0.828331 0.753075 0.959255 0.95298 0.834279 0.753327 0.827975 0.965469 0.946788 0.98415 0.965571 0.847122 0.721677 0.959419 0.840448 0.96553 0.940455 0.83446 0.840625 0.971969 0.934429 0.828027 0.972026 0.934323 0.834556 0.940795 0.827903 0.953362 0.821724 0.94047 0.734489 0.840737 0.953196 0.940598 0.734543 0.83424 0.740469 0.940436 0.840619 0.946878 0.747028 0.97833 0.809422 0.740448 0.947112 0.965426 0.746859 0.802992 0.740757 0.971765 0.796871 0.953088 0.734325 0.809292 0.959507 0.95962 0.81584 0.809379 0.978175 0.746643 0.959503 0.984135 0.753242 0.802955 0.746669 0.797023 0.965529 0.96578 0.752929 0.803163 0.965852 0.753011 0.959233 0.796949 0.765542 0.965551 0.809292 0.946719 0.759388 0.971986 0.965514 0.803304 0.759226 0.953346 0.971762 0.7655 0.809296 0.927991 0.765853 0.828227 0.771924 0.815756 0.959586 0.915687 0.82187 0.772073 0.92197 0.834578 0.771674 0.953069 0.928294 0.759343 0.834484 0.934612 0.959415 0.765811 0.834532 0.765569 0.921921 0.828152 0.771909 0.965811 0.909139 0.815661 0.777881 0.965825 0.821816 0.771932 0.915779 0.965816 0.822012 0.77819 0.902992 0.815537 0.971934 0.784344 0.828292 0.971976 0.7782 0.890656 0.828337 0.978274 0.784504 0.909227 0.821668 0.978334 0.790506 0.921643 0.859343 0.98414 0.790651 0.902942 0.990765 0.853306 0.784418 0.984289 0.896666 0.846769 0.778211 0.971903 0.940516 0.784616 0.96584 0.978138 0.865828 0.947101 0.784145 0.984276 0.977897 0.859255 0.927946 0.984487 0.796647 0.990819 0.984352 0.990592 0.853133 0.947007 0.990598 0.790472 0.99057 0.984429 0.865861 0.996858 0.934196 0.990732 0.790649 0.853124 0.990843 1.00303 0.940465 0.790714 0.996785 0.996707 0.846921 1.00303 1.0033 0.915469 1.0032 0.796826 0.846627 0.928154 1.00927 0.759321 1.00937 0.909185 0.77193 0.847028 0.978323 0.753293 0.921868 0.859186 0.971957 0.765458 0.859158 0.934558 0.984473 0.777939 0.859582 0.915761 0.977894 0.784342 1.04672 0.853244 0.777881 1.0405 0.984361 1.04667 0.778357 0.871633 1.05322 1.05301 0.990752 0.877934 0.759553 0.996725 1.04706 0.87789 0.765726 0.978029 0.871712 1.03423 0.75934 0.990638 0.884384 1.03452 0.765823 0.884563 0.996695 1.04059 0.772011 1.04055 0.865529 0.778113 1.03438 0.997095 0.872122 0.784189 1.02809 1.0031 0.871717 1.05936 0.790454 0.996876 0.865536 1.05298 0.790422 0.984305 0.877918 1.06553 0.797081 0.990715 0.871952 1.05915 1.00308 0.803126 0.878024 1.05934 1.00303 0.840739 0.797104 1.04671 1.00327 0.847106 1.00925 0.796902 0.840638 1.04664 0.997084 0.790668 1.04068 0.852951 1.00288 0.79707 0.852886 1.00932 1.05333 0.853349 0.790824 1.0095 1.05306 0.846995 0.803063 1.00918 1.05917 0.80313 1.01539 0.840485 0.80321 1.0468 1.00309 1.00935 0.996766 0.834241 1.02171 1.00947 1.01585 0.834559 1.00333 1.02176 1.01567 0.84044 1.01568 1.02173 1.02192 1.00954 0.846728 1.02795 0.846827 1.02826 1.01559 0.840465 1.01551 1.01574 1.02205 0.859232 1.00915 1.02208 0.721818 0.865685 1.00335 1.02209 0.865508 0.990509 0.715673 1.0096 1.02821 0.859484 1.02818 1.02807 1.02207 1.03416 0.721884 0.872011 1.03439 0.996728 1.03449 1.04081 0.740745 1.0406 1.04071 0.871985 0.734292 1.03448 0.728308 1.02173 0.921823 0.865691 1.04665 0.734152 1.0408 0.859232 0.922081 0.747065 1.03427 0.853069 0.940683 1.02834 0.92834 0.859274 1.01558 0.753021 0.927993 0.852906 0.946819 1.0343 0.86553 0.946653 0.759409 1.02802 0.959592 0.871772 1.02203 0.953349 0.765568 0.865578 1.07791 0.953242 0.709201 0.759167 1.06582 0.965622 0.746676 1.08427 0.752905 1.07199 0.934573 1.09058 0.746965 0.934296 0.71563 1.07792 0.765623 0.95331 0.722075 1.07163 0.715875 0.759242 0.946706 0.715605 0.940686 0.752919 1.06542 0.702941 0.965728 1.05333 0.75914 0.940473 0.709407 1.0596 0.959381 1.0593 0.72199 0.715494 0.97211 1.0717 0.971772 1.06581 0.715409 0.978181 1.09669 0.703239 0.965593 1.07821 0.734419 0.734149 0.971814 0.740851 0.728143 0.96582 1.09076 0.74668 0.721787 1.1029 0.740718 0.984255 1.08434 0.746698 0.703344 1.07825 0.728008 0.978174 0.709276 0.72796 0.971675 1.07199 0.727876 0.984512 0.73452 0.977918 0.709417 1.08439 0.734196 1.09039 0.978344 0.703292 0.740561 1.07807 0.734539 0.727947 0.990445 1.05308 0.740729 0.721658 0.990499 1.05305 0.728303 1.04684 0.984589 0.721947 1.06585 0.990739 0.715789 0.997095 0.740793 0.721976 1.0468 0.977915 0.753041 1.05953 0.978294 0.746684 1.04063 0.996769 0.740392 0.984266 1.02834 0.990418 0.759297 1.02212 1.00302 0.715564 1.0346 0.734149 0.753252 0.996958 1.0529 0.727929 0.765694 1.00305 1.02793 0.728255 0.734523 1.0094 1.03448 0.728221 0.746785 1.