# vtk DataFile Version 3.0
vtk output
ASCII
DATASET UNSTRUCTURED_GRID
POINTS 44491 float
0.00206901 0 0
0.0186809 0 0
0.0174406 0.0113908 0
0.011897 0.0127131 0
0.00206901 0 0
0 0 0
0.00206901 0 0
0.011897 0.0127131 0
0.00931893 0.0162977 0
0 0.0183564 0
0 0 0
0.0174406 0.0113908 0
0.0186809 0 0
0.0280677 0 0
0.0287936 0.0120869 0
0.0223817 0.0142286 0
0.0174406 0.0113908 0
0.0287936 0.0120869 0
0.0280677 0 0
0.0386884 0 0
0.0391802 0.0115085 0
0.0338919 0.0141206 0
0.0287936 0.0120869 0
0 0.0183564 0
0.00931893 0.0162977 0
0.0131573 0.0247522 0
0.0101125 0.0295003 0
0.00869626 0.0301436 0
0 0.0277504 0
0 0.0183564 0
0.0101125 0.0295003 0
0.0131573 0.0247522 0
0.0229303 0.0233965 0
0.0261651 0.026369 0
0.0250483 0.0338974 0
0.0210177 0.0363802 0
0.0101125 0.0295003 0
0.00931893 0.0162977 0
0.011897 0.0127131 0
0.0174406 0.0113908 0
0.0223817 0.0142286 0
0.0229303 0.0233965 0
0.0131573 0.0247522 0
0.00931893 0.0162977 0
0.0223817 0.0142286 0
0.0287936 0.0120869 0
0.0338919 0.0141206 0
0.0339726 0.0243594 0
0.0261651 0.026369 0
0.0229303 0.0233965 0
0.0223817 0.0142286 0
0.47403 0.397818 0
0.482539 0.404835 0
0.482703 0.407443 0
0.472755 0.413635 0
0.465284 0.40749 0
0.465919 0.402275 0
0.47403 0.397818 0
0.0250483 0.0338974 0
0.0261651 0.026369 0
0.0339726 0.0243594 0
0.0374013 0.0264703 0
0.0385875 0.0312912 0
0.0365381 0.0361792 0
0.0317299 0.0382521 0
0.0250483 0.0338974 0
0.0386884 0 0
0.051746 0 0
0.0512409 0.00767921 0
0.0438961 0.0126915 0
0.0391802 0.0115085 0
0.0386884 0 0
0.85283 0.475279 0
0.861989 0.471096 0
0.868762 0.480297 0
0.862912 0.48599 0
0.854788 0.485322 0
0.85283 0.475279 0
0.046367 0.021298 0
0.0438961 0.0126915 0
0.0512409 0.00767921 0
0.0570892 0.0123228 0
0.0557834 0.0201404 0
0.051107 0.0230359 0
0.046367 0.021298 0
0.482539 0.404835 0
0.490679 0.395735 0
0.492056 0.395707 0
0.500194 0.403498 0
0.499544 0.406581 0
0.487232 0.411873 0
0.482703 0.407443 0
0.482539 0.404835 0
0.0512409 0.00767921 0
0.051746 0 0
0.0640374 0 0
0.0643434 0.00997953 0
0.0570892 0.0123228 0
0.0512409 0.00767921 0
0.457862 0.411891 0
0.457272 0.417969 0
0.4494 0.422218 0
0.442115 0.416052 0
0.443013 0.409627 0
0.450355 0.406188 0
0.457862 0.411891 0
0.876758 0.471238 0
0.872515 0.480245 0
0.868762 0.480297 0
0.861989 0.471096 0
0.863853 0.465491 0
0.869559 0.463509 0
0.876758 0.471238 0
0.480549 0.895449 0
0.491285 0.897058 0
0.495643 0.900823 0
0.495714 0.901081 0
0.48812 0.915214 0
0.484664 0.914372 0
0.480549 0.895449 0
0.44464 0.905066 0
0.45231 0.904215 0
0.45597 0.916373 0
0.454974 0.91748 0
0.443504 0.921279 0
0.441183 0.919045 0
0.44464 0.905066 0
0.839548 0.494272 0
0.843902 0.487622 0
0.853274 0.486985 0
0.854263 0.499303 0
0.848242 0.50254 0
0.839548 0.494272 0
0.432506 0.903864 0
0.439607 0.901726 0
0.44464 0.905066 0
0.441183 0.919045 0
0.43168 0.916689 0
0.432506 0.903864 0
0.854788 0.485322 0
0.862912 0.48599 0
0.867251 0.494815 0
0.859473 0.500942 0
0.854263 0.499303 0
0.853274 0.486985 0
0.854788 0.485322 0
0.45231 0.904215 0
0.45561 0.899741 0
0.459728 0.899612 0
0.467732 0.910159 0
0.464423 0.915322 0
0.45597 0.916373 0
0.45231 0.904215 0
0.862912 0.48599 0
0.868762 0.480297 0
0.872515 0.480245 0
0.877186 0.484673 0
0.874465 0.49641 0
0.867251 0.494815 0
0.862912 0.48599 0
0.443213 0.924521 0
0.451842 0.934617 0
0.448526 0.94062 0
0.441833 0.94196 0
0.435035 0.932297 0
0.443213 0.924521 0
0.454974 0.91748 0
0.459043 0.93262 0
0.451842 0.934617 0
0.443213 0.924521 0
0.443504 0.921279 0
0.454974 0.91748 0
0.886596 0.384542 0
0.896169 0.393303 0
0.89531 0.397094 0
0.889725 0.399877 0
0.879695 0.394707 0
0.879609 0.39138 0
0.886596 0.384542 0
0.45597 0.916373 0
0.464423 0.915322 0
0.470622 0.927351 0
0.459687 0.932801 0
0.459043 0.93262 0
0.454974 0.91748 0
0.45597 0.916373 0
0.0385875 0.0312912 0
0.0374013 0.0264703 0
0.046367 0.021298 0
0.051107 0.0230359 0
0.0531016 0.0338438 0
0.0522927 0.0343754 0
0.0385875 0.0312912 0
0.872469 0.377667 0
0.875721 0.375747 0
0.886794 0.382359 0
0.886596 0.384542 0
0.879609 0.39138 0
0.87088 0.385943 0
0.872469 0.377667 0
0.459687 0.932801 0
0.470622 0.927351 0
0.470955 0.927456 0
0.473906 0.943488 0
0.470733 0.945124 0
0.464317 0.945617 0
0.459687 0.932801 0
0.442115 0.416052 0
0.4494 0.422218 0
0.44854 0.428718 0
0.442478 0.432229 0
0.434191 0.427216 0
0.434369 0.420187 0
0.442115 0.416052 0
0.886596 0.384542 0
0.886794 0.382359 0
0.88905 0.37989 0
0.90251 0.380463 0
0.902435 0.388609 0
0.896169 0.393303 0
0.886596 0.384542 0
0.0338919 0.0141206 0
0.0391802 0.0115085 0
0.0438961 0.0126915 0
0.046367 0.021298 0
0.0374013 0.0264703 0
0.0339726 0.0243594 0
0.0338919 0.0141206 0
0.457862 0.411891 0
0.465284 0.40749 0
0.472755 0.413635 0
0.472708 0.419449 0
0.463888 0.423595 0
0.457272 0.417969 0
0.457862 0.411891 0
0.464423 0.915322 0
0.467732 0.910159 0
0.469192 0.909649 0
0.482266 0.914983 0
0.472651 0.926793 0
0.470955 0.927456 0
0.470622 0.927351 0
0.464423 0.915322 0
0.051107 0.0230359 0
0.0557834 0.0201404 0
0.0639409 0.0241985 0
0.0640081 0.0296634 0
0.058745 0.0349114 0
0.0531016 0.0338438 0
0.051107 0.0230359 0
0.880492 0.410796 0
0.875614 0.399133 0
0.879695 0.394707 0
0.889725 0.399877 0
0.887022 0.410274 0
0.884438 0.411815 0
0.880492 0.410796 0
0.441523 0.440227 0
0.442478 0.432229 0
0.44854 0.428718 0
0.456512 0.434231 0
0.455774 0.441768 0
0.450916 0.444961 0
0.441523 0.440227 0
0.0557834 0.0201404 0
0.0570892 0.0123228 0
0.0643434 0.00997953 0
0.0686645 0.0130052 0
0.0699058 0.0183031 0
0.0639409 0.0241985 0
0.0557834 0.0201404 0
0.495714 0.901081 0
0.506246 0.909015 0
0.498687 0.918252 0
0.490764 0.918479 0
0.48812 0.915214 0
0.495714 0.901081 0
0.4494 0.422218 0
0.457272 0.417969 0
0.463888 0.423595 0
0.463281 0.430287 0
0.456512 0.434231 0
0.44854 0.428718 0
0.4494 0.422218 0
0.911261 0.399457 0
0.91371 0.411584 0
0.908299 0.414592 0
0.899952 0.410738 0
0.900718 0.402652 0
0.911261 0.399457 0
0.0174798 0.0442083 0
0.0103164 0.0453862 0
0.00842681 0.0443626 0
0.00869626 0.0301436 0
0.0101125 0.0295003 0
0.0210177 0.0363802 0
0.0174798 0.0442083 0
0.487232 0.411873 0
0.487834 0.418511 0
0.478714 0.424289 0
0.472708 0.419449 0
0.472755 0.413635 0
0.482703 0.407443 0
0.487232 0.411873 0
0.472651 0.926793 0
0.489417 0.930144 0
0.489711 0.930829 0
0.476346 0.943916 0
0.473906 0.943488 0
0.470955 0.927456 0
0.472651 0.926793 0
0 0.0277504 0
0.00869626 0.0301436 0
0.00842681 0.0443626 0
0 0.0453417 0
0 0.0277504 0
0.896169 0.393303 0
0.902435 0.388609 0
0.909583 0.39222 0
0.91159 0.398882 0
0.911261 0.399457 0
0.900718 0.402652 0
0.89531 0.397094 0
0.896169 0.393303 0
0.482266 0.914983 0
0.484664 0.914372 0
0.48812 0.915214 0
0.490764 0.918479 0
0.489417 0.930144 0
0.472651 0.926793 0
0.482266 0.914983 0
0.0213258 0.047881 0
0.0174798 0.0442083 0
0.0210177 0.0363802 0
0.0250483 0.0338974 0
0.0317299 0.0382521 0
0.0307613 0.0462064 0
0.0213258 0.047881 0
0.889725 0.399877 0
0.89531 0.397094 0
0.900718 0.402652 0
0.899952 0.410738 0
0.896705 0.412794 0
0.887022 0.410274 0
0.889725 0.399877 0
0.487232 0.411873 0
0.499544 0.406581 0
0.504184 0.415219 0
0.494413 0.423081 0
0.487834 0.418511 0
0.487232 0.411873 0
0.00717963 0.0589244 0
0.0101064 0.0566545 0
0.0208289 0.0581705 0
0.0195071 0.068546 0
0.0106179 0.0699431 0
0.00717963 0.0589244 0
0.463281 0.430287 0
0.463888 0.423595 0
0.472708 0.419449 0
0.478714 0.424289 0
0.478906 0.429154 0
0.471392 0.435684 0
0.463281 0.430287 0
0.490764 0.918479 0
0.498687 0.918252 0
0.505521 0.925888 0
0.498535 0.933925 0
0.49172 0.932404 0
0.489711 0.930829 0
0.489417 0.930144 0
0.490764 0.918479 0
0 0.0453417 0
0.00842681 0.0443626 0
0.0103164 0.0453862 0
0.0101064 0.0566545 0
0.00717963 0.0589244 0
0 0.0578182 0
0 0.0453417 0
0.913338 0.377323 0
0.914293 0.375081 0
0.922669 0.371561 0
0.929214 0.381545 0
0.928439 0.383508 0
0.922861 0.386174 0
0.917099 0.384498 0
0.913338 0.377323 0
0.486578 0.434612 0
0.495396 0.427942 0
0.500479 0.431293 0
0.501414 0.439789 0
0.492427 0.44467 0
0.48697 0.441161 0
0.486578 0.434612 0
0.0103164 0.0453862 0
0.0174798 0.0442083 0
0.0213258 0.047881 0
0.0213974 0.0577487 0
0.0208289 0.0581705 0
0.0101064 0.0566545 0
0.0103164 0.0453862 0
0.383531 0.942225 0
0.385471 0.94266 0
0.388441 0.956555 0
0.382163 0.959065 0
0.376347 0.95617 0
0.375208 0.94502 0
0.383531 0.942225 0
0.902435 0.388609 0
0.90251 0.380463 0
0.902806 0.380037 0
0.913338 0.377323 0
0.917099 0.384498 0
0.909583 0.39222 0
0.902435 0.388609 0
0.478714 0.424289 0
0.487834 0.418511 0
0.494413 0.423081 0
0.495396 0.427942 0
0.486578 0.434612 0
0.478906 0.429154 0
0.478714 0.424289 0
0.0195071 0.068546 0
0.0208289 0.0581705 0
0.0213974 0.0577487 0
0.0322608 0.0590831 0
0.0335154 0.0609734 0
0.0308554 0.068542 0
0.0220448 0.0708423 0
0.0195071 0.068546 0
0.385471 0.94266 0
0.39251 0.9394 0
0.399951 0.953027 0
0.393048 0.957747 0
0.388441 0.956555 0
0.385471 0.94266 0
0.929214 0.381545 0
0.935949 0.377547 0
0.943781 0.380759 0
0.944693 0.383797 0
0.93681 0.393204 0
0.928439 0.383508 0
0.929214 0.381545 0
0.0213974 0.0577487 0
0.0213258 0.047881 0
0.0307613 0.0462064 0
0.0346604 0.0508228 0
0.0322608 0.0590831 0
0.0213974 0.0577487 0
0.380983 0.45157 0
0.378915 0.445608 0
0.385701 0.438325 0
0.394723 0.443103 0
0.391844 0.455054 0
0.380983 0.45157 0
0.393866 0.936988 0
0.40186 0.93577 0
0.409418 0.942646 0
0.401472 0.953043 0
0.399951 0.953027 0
0.39251 0.9394 0
0.393866 0.936988 0
0.917099 0.384498 0
0.922861 0.386174 0
0.922931 0.397975 0
0.91159 0.398882 0
0.909583 0.39222 0
0.917099 0.384498 0
0.0365381 0.0361792 0
0.0385875 0.0312912 0
0.0522927 0.0343754 0
0.0469685 0.0466054 0
0.0459325 0.0471636 0
0.0365381 0.0361792 0
0.388441 0.956555 0
0.393048 0.957747 0
0.396104 0.970375 0
0.39562 0.970724 0
0.384509 0.970679 0
0.382014 0.967911 0
0.382163 0.959065 0
0.388441 0.956555 0
0.369956 0.436071 0
0.377278 0.429513 0
0.384976 0.433452 0
0.385701 0.438325 0
0.378915 0.445608 0
0.371375 0.443401 0
0.369956 0.436071 0
0.91371 0.411584 0
0.911261 0.399457 0
0.91159 0.398882 0
0.922931 0.397975 0
0.923827 0.398655 0
[...]
CELL_DATA 6400
FIELD FieldData 3
weight 1 6400 float
 0.0519547 0.0519091 0.0520445 0.052116 0.0519752 0.0520852 0.0520286 0.0521006 0.0549078 0.0521696 0.0521752 0.0534735 0.0522548 0.0549106 0.0522648 0.0548742 0.0534214 0.0518875 0.0518073 0.05354 0.0518239 0.0534557 0.0518412 0.0533842 0.05154 0.0516388 0.0533416 0.0516683 0.0522679 0.0534202 0.0515161 0.054853 0.0532856 0.0521875 0.0548844 0.051754 0.0523337 0.0533891 0.0548363 0.0523367 0.0518357 0.0548619 0.0531939 0.0520833 0.0548883 0.0515847 0.0520123 0.0532082 0.051684 0.0521764 0.0532898 0.054902 0.0521625 0.0548674 0.0516804 0.052052 0.0530717 0.0548627 0.052138 0.0512532 0.0531662 0.0548753 0.0522382 0.051291 0.0529477 0.0522163 0.0547363 0.0513734 0.0531116 0.0522868 0.0510797 0.0547284 0.053108 0.0522543 0.0547467 0.0511336 0.0530242 0.0523578 0.0547039 0.051382 0.0530202 0.054713 0.0524476 0.0512928 0.0547739 0.0522914 0.0534011 0.0514388 0.0548004 0.0533111 0.0523835 0.0512021 0.054746 0.0532295 0.0523734 0.0547767 0.0511166 0.053347 0.054781 0.0524589 0.051229 0.0532651 0.0524193 0.0546656 0.0509431 0.053136 0.0523462 0.0546793 0.0509759 0.0524415 0.0530622 0.0547189 0.0509871 0.0525148 0.0531625 0.0509204 0.0546505 0.0524279 0.0530709 0.0507766 0.0546869 0.0524942 0.0530515 0.0507664 0.0525849 0.0546608 0.0507551 0.052515 0.0529682 0.0509494 0.0525715 0.0547265 0.0510527 0.0525945 0.0528233 0.0547527 0.0507756 0.052701 0.0508087 0.0547582 0.0528796 0.0526311 0.0508149 0.0527223 0.0546972 0.0527387 0.0513596 0.0526585 0.0529399 0.0547083 0.0526666 0.0514579 0.0528346 0.0547351 0.052789 0.0512284 0.0527648 0.0548104 0.0527345 0.0512764 0.0548456 0.0527242 0.0525057 0.0548217 0.0526285 0.0524299 0.0513217 0.0548037 0.0524831 0.0525371 0.0547965 0.051511 0.0525631 0.0548529 0.0526207 0.0526672 0.0515179 0.0525308 0.0525967 0.0512405 0.0548422 0.0526048 0.0525576 0.0548133 0.051347 0.0524841 0.0526884 0.0548291 0.0525087 0.051341 0.0526744 0.0548204 0.0528609 0.052588 0.0512577 0.0548321 0.0529376 0.0511045 0.0527165 0.0547524 0.052766 0.0509614 0.0547806 0.0527979 0.0511486 0.0547635 0.0528726 0.052765 0.0547456 0.0527046 0.051073 0.052782 0.0527813 0.0508435 0.0547252 0.0525606 0.0509927 0.0547567 0.052905 0.0526602 0.0508822 0.0547875 0.0520985 0.0524704 0.0511171 0.0521454 0.0524756 0.0547866 0.0510173 0.0522004 0.0526514 0.0548007 0.0524665 0.0522925 0.0511441 0.0547845 0.0525464 0.0521887 0.0508475 0.0532902 0.0522291 0.0547674 0.0508909 0.0522813 0.0533836 0.0509324 0.052397 0.0531954 0.0547683 0.0523336 0.0532623 0.0540007 0.0547475 0.052527 0.0540015 0.0533681 0.0547335 0.0539985 0.052457 0.0547265 0.053336 0.0524424 0.0547006 0.0540648 0.0523646 0.0532146 0.0547221 0.0525221 0.0541192 0.0531557 0.0547448 0.0522922 0.0540646 0.0531012 0.0522313 0.0547319 0.0531062 0.0541066 0.0523258 0.05472 0.0541003 0.0529845 0.0523797 0.0547233 0.0540463 0.0529765 0.0546912 0.0523336 0.0540242 0.0530249 0.0546868 0.0539957 0.052264 0.0529331 0.0540092 0.0523587 0.0546736 0.0539731 0.0533288 0.0546931 0.0524649 0.0540948 0.0532293 0.0540637 0.0525866 0.0546383 0.0531768 0.0541135 0.0546597 0.0525654 0.0531429 0.0541737 0.0546238 0.0525098 0.054688 0.0524249 0.0541506 0.0532843 0.0546606 0.054135 0.0524612 0.054654 0.0532004 0.0541399 0.0525111 0.0546288 0.0546261 0.0541724 0.0526103 0.0530894 0.0545915 0.0542057 0.0525905 0.0530481 0.0542126 0.052672 0.0546988 0.052896 0.0541384 0.0525971 0.0546806 0.054115 0.0530616 0.0527567 0.0541928 0.0546712 0.0526764 0.0530074 0.0541723 0.0546553 0.0527534 0.054153 0.0528787 0.0546546 0.0528549 0.0541713 0.0529645 0.0546113 0.0539952 0.0529354 0.0546386 0.0528972 0.0539467 0.0528594 0.0546298 0.0539679 0.052862 0.0539322 0.0528365 0.0527372 0.0540357 0.0529331 0.0546273 0.054083 0.0528772 0.0526638 0.0540318 0.0527335 0.0527965 0.0545786 0.0538888 0.052811 0.052762 0.0545844 0.0539331 0.0527121 0.0527048 0.0545946 0.0539052 0.0526405 0.0526282 0.0545433 0.053862 0.0546192 0.0526511 0.0539935 0.0526938 0.0524576 0.0546191 0.0540123 0.0528506 0.0545731 0.0525278 0.052774 0.0539861 0.0525798 0.0528328 0.0545793 0.0539726 0.0545351 0.0524136 0.0529055 0.0541226 0.0545803 0.0525244 0.0540903 0.0545186 0.0529084 0.0527646 0.0540991 0.0545583 0.0540557 0.0530387 0.0528212 0.0545028 0.0541557 0.0544823 0.0526776 0.0529853 0.0541064 0.0544586 0.0528152 0.0541533 0.0529276 0.0545998 0.0540667 0.0529984 0.0527408 0.0540462 0.05458 0.053073 0.0526388 0.0540376 0.0527869 0.0545808 0.0541465 0.0526439 0.05277 0.0545562 0.0540926 0.0525365 0.052913 0.0545053 0.0528953 0.0540709 0.0525002 0.0545356 0.0528318 0.0523852 0.0545853 0.0542442 0.0528652 0.0545369 0.0525747 0.0528606 0.054257 0.0545462 0.0529385 0.0524513 0.0543462 0.0544779 0.0529701 0.0523741 0.0543021 0.0544989 0.0529763 0.0524664 0.0542988 0.0544519 0.0543457 0.0523533 0.0542452 0.0544857 0.0542773 0.0524385 0.0543859 0.0542214 0.052446 0.0543323 0.0543495 0.0542638 0.0544276 0.052536 0.054321 0.0544424 0.0523321 0.0544108 0.0524027 0.0544463 0.0544278 0.0524989 0.0543626 0.0543884 0.0543869 0.0526223 0.0544376 0.0543193 0.0527066 0.0545009 0.0543823 0.0544663 0.0527481 0.0545385 0.0544732 0.0528186 0.0530337 0.054537 0.0543819 0.052613 0.0530469 0.054487 0.0544142 0.0531209 0.0526897 0.0544854 0.054374 0.053001 0.0544857 0.0527833 0.0530718 0.0544275 0.054472 0.0523013 0.0531389 0.0544352 0.0544265 0.0523461 0.054437 0.0544308 0.0528842 0.0524361 0.0530298 0.0544569 0.0544099 0.0525298 0.0529622 0.0543736 0.0522766 0.0542041 0.0522626 0.0529173 0.0542017 0.0543602 0.0524709 0.0543171 0.0530026 0.0544279 0.0542592 0.0523538 0.0543688 0.0530746 0.0542522 0.0543735 0.0526523 0.0531037 0.0543111 0.0525983 0.0532364 0.0543014 0.054129 0.0527125 0.0532134 0.0541887 0.0543092 0.0543047 0.0541837 0.0531648 0.0527692 0.054374 0.053134 0.0541213 0.0525845 0.0543088 0.0542496 0.0532406 0.0526197 0.054302 0.0542469 0.0533211 0.0527102 0.0542423 0.0530866 0.0541798 0.0531405 0.0528853 0.0542443 0.0543655 0.0531911 0.0543874 0.0532885 0.0541755 0.054357 0.0529399 0.0531934 0.0543314 0.0542375 0.0532365 0.0530894 0.0545196 0.0544295 0.0533547 0.0529963 0.0533062 0.0544167 0.0545546 0.0532711 0.0528676 0.054304 0.0544943 0.0533367 0.0529442 0.0543047 0.0533216 0.054536 0.0542404 0.0544679 0.0534289 0.0543588 0.0544646 0.0534018 0.0544037 0.0544749 0.0534186 0.0543571 0.0544387 0.0535139 0.0542994 0.0532541 0.0543814 0.0538805 0.0533311 0.0544061 0.053836 0.0533849 0.0537481 0.0544342 0.0537953 0.0533862 0.0543435 0.0538377 0.0544331 0.0533037 0.0539014 0.0534214 0.0544929 0.0539711 0.0544011 0.0535089 0.0539465 0.0534529 0.0544461 0.0538714 0.0534874 0.0539381 0.0543632 0.0538012 0.0534803 0.0543374 0.0537106 0.0544033 0.0535425 0.0537384 0.0542984 0.0536653 0.0535735 0.0543686 0.0538333 0.0543233 0.0535682 0.0537899 0.0538074 0.054259 0.0536217 0.0540043 0.0543696 0.0536222 0.0539306 0.0530027 0.0539845 0.0539637 0.0543344 0.0530181 0.0531088 0.0540363 0.0542648 0.0531042 0.054018 0.0543005 0.0539991 0.0543244 0.0530201 0.0539178 0.0542266 0.0530883 0.0538765 0.0531706 0.0542149 0.0538592 0.0531888 0.0530401 0.0539495 0.0531769 0.0541399 0.0530492 0.0538852 0.0532509 0.0541794 0.0539348 0.0533144 0.0531591 0.0536067 0.0541367 0.0532596 0.0536808 0.0542216 0.0532544 0.0534109 0.0536213 0.0542847 0.0533265 0.0535532 0.0542553 0.0531247 0.0537363 0.0533875 0.0541697 0.0537101 0.053124 0.054236 0.0532756 0.0535869 0.0531158 0.053654 0.054115 0.053195 0.0532173 0.0541622 0.053497 0.0528093 0.0541465 0.0535321 0.0531637 0.0529128 0.0540763 0.053474 0.0532057 0.0529733 0.0540067 0.053441 0.0532526 0.0528131 0.0540747 0.0535736 0.053285 0.052863 0.054075 0.0536309 0.0532911 0.0529125 0.0540029 0.0534993 0.0534268 0.0530854 0.0533575 0.0538322 0.0543398 0.0531671 0.053773 0.0533771 0.0543813 0.0537312 0.0532174 0.0533623 0.0543153 0.0537277 0.0529974 0.0542659 0.0534361 0.0538307 0.053114 0.0534813 0.0542854 0.0538619 0.0531048 0.0542429 0.053404 0.0537997 0.0522746 0.0542622 0.0534579 0.0537828 0.0522036 0.0542915 0.0535302 0.0537802 0.0523815 0.053525 0.0541824 0.0536627 0.0521686 0.0534597 0.0541996 0.0522089 0.0535869 0.0535551 0.0541158 0.0523264 0.0537179 0.0535873 0.0542108 0.052362 0.0537286 0.0536012 0.0542169 0.0524905 0.0536618 0.0541849 0.0525407 0.0536539 0.054143 0.0536553 0.0524451 0.0536195 0.054065 0.0536642 0.0526573 0.0541444 0.0541316 0.0540602 0.052456 0.0537253 0.0540473 0.0540874 0.0525612 0.0535425 0.0541419 0.0525218 0.0541236 0.0534771 0.0540651 0.0521052 0.0541671 0.0536134 0.0522121 0.0540576 0.0541089 0.0535912 0.0520579 0.0540013 0.0541137 0.0523004 0.0535758 0.0540164 0.0539861 0.052293 0.0539705 0.0541849 0.0534964 0.0520148 0.0541118 0.0521356 0.0539086 0.053669 0.0541063 0.0540327 0.0521521 0.0540209 0.0540722 0.0536642 0.0523916 0.0540333 0.0540141 0.0536819 0.0524862 0.0539978 0.0542319 0.0540563 0.052386 0.0537354 0.0541746 0.0541931 0.0522796 0.0537046 0.0539219 0.0541377 0.0539291 0.0537328 0.0524516 0.0542486 0.0539693 0.0523929 0.0537786 0.053912 0.0542978 0.0527733 0.0522853 0.0538664 0.0542473 0.0528765 0.0540428 0.0524083 0.0541272 0.0526691 0.0539672 0.0523671 0.0540533 0.0526469 0.0539514 0.0523831 0.0541831 0.0527831 0.053894 0.0523375 0.0528074 0.0541652 0.0523156 0.0539184 0.0528951 0.0541029 0.0524525 0.0538444 0.0529904 0.0538783 0.0524526 0.0538919 0.0539416 0.0531264 0.0524903 0.0538372 0.053823 0.0530261 0.0526199 0.0539855 0.0537731 0.0528869 0.0539136 0.0525555 0.0537985 0.0529853 0.0538893 0.0525378 0.0538684 0.0537473 0.0530904 0.0525601 0.0537615 0.0525863 0.0526386 0.053702 0.0526996 0.0543324 0.0523497 0.0538085 0.0527706 0.0524008 0.0542665 0.0538128 0.052709 0.0525078 0.0524733 0.0525839 0.0537454 0.0543077 0.0524308 0.0537524 0.0525599 0.0542549 0.0523694 0.0540277 0.0526835 0.0525396 0.0541769 0.0539576 0.0528695 0.0524997 0.0542287 0.0539443 0.0525564 0.0530215 0.0542201 0.0525886 0.0540892 0.0530095 0.0526925 0.0542917 0.0540207 0.0526388 0.0528199 0.0538748 0.0542611 0.052716 0.0527757 0.0538083 0.0541804 0.0526262 0.0541435 0.0529213 0.0538087 0.0526262 0.0540909 0.0529157 0.0538797 0.0541452 0.0527078 0.0533943 0.0539508 0.0539971 0.0527837 0.0538704 0.0535218 0.0527097 0.0540344 0.0545313 0.0540609 0.0532802 0.0528586 0.0533747 0.0541004 0.0527451 0.0534665 0.054509 0.0528346 0.0540495 0.0534562 0.0540176 0.0529197 0.054522 0.053651 0.0539633 0.0545546 0.0529443 0.0535597 0.0539606 0.0545659 0.0530204 0.0542183 0.0537222 0.0545368 0.0541638 0.05452 0.0537074 0.053098 0.0542369 0.0544911 0.0535397 0.0530135 0.0541822 0.0544724 0.0536849 0.0530775 0.0540757 0.0545447 0.0536168 0.0541336 0.0531716 0.0545325 0.0533201 0.0541677 0.0528022 0.0545086 0.053366 0.0527752 0.0541026 0.0528911 0.0534036 0.0546196 0.0541808 0.0529577 0.0545899 0.0540958 0.0532138 0.0528504 0.0546037 0.0540232 0.0533265 0.0527774 0.054582 0.0540995 0.0533893 0.0528736 0.0540395 0.0546289 0.0535067 0.0529431 0.0539131 0.0546499 0.0535894 0.0529915 0.0540022 0.0545745 0.0536241 0.0531648 0.0545934 0.0539458 0.0534633 0.0545655 0.0530885 0.0540084 0.0534789 0.0539766 0.0545833 0.0530219 0.0535429 0.0546108 0.053915 0.0530595 0.0535302 0.0546313 0.053875 0.0531102 0.053914 0.0545929 0.0537801 0.0531864 0.0538422 0.0544544 0.0538557 0.0523919 0.054496 0.0524522 0.0538355 0.0537594 0.0525292 0.054444 0.0538011 0.0539193 0.0544823 0.0525763 0.0539028 0.054532 0.0540015 0.0524111 0.0545105 0.0524803 0.0539495 0.0525784 0.0537626 0.0544065 0.0539163 0.052542 0.0543956 0.0537282 0.0526255 0.0544358 0.0537703 0.054097 0.0544595 0.0526767 0.0538596 0.0538818 0.0544669 0.0538844 0.0527454 0.0544313 0.0539963 0.053864 0.0526365 0.0545588 0.0540172 0.053727 0.0545423 0.0526947 0.0545011 0.0537981 0.0528137 0.054086 0.0545717 0.0537589 0.0527726 0.0537034 0.0545709 0.0527349 0.0536439 0.0545352 0.0537033 0.0524806 0.0545004 0.0537979 0.0536268 0.0524365 0.0544686 0.0538397 0.0536687 0.0545377 0.0526026 0.0535524 0.0525257 0.0536421 0.0544986 0.0524759 0.0536195 0.0544631 0.0534464 0.0537589 0.0525688 0.0546712 0.0539183 0.0526815 0.0534527 0.0546749 0.0526438 0.0538668 0.0535486 0.0546928 0.0535972 0.0539678 0.0527788 0.0547079 0.0536498 0.0538953 0.0547193 0.0526693 0.0535536 0.0546463 0.0537999 0.0546576 0.0528213 0.0534212 0.0539912 0.0546229 0.0527344 0.0534767 0.0532221 0.0546887 0.0529114 0.0537869 0.0547008 0.05324 0.0528276 0.0538299 0.0546769 0.05331 0.0536696 0.0529993 0.0547572 0.0531383 0.0536415 0.0528594 0.0532291 0.0537297 0.0547337 0.0529472 0.053305 0.0537649 0.0547478 0.0530325 0.0533716 0.0538165 0.0530844 0.0534597 0.0537332 0.0547862 0.0531634 0.053654 0.0535321 0.0547726 0.0532262 0.0533929 0.0536605 0.0547943 0.0533154 0.0532687 0.0547465 0.0535721 0.0547229 0.0531142 0.0531188 0.0535516 0.0547187 0.0531959 0.0535339 0.0531034 0.0547323 0.0532618 0.0531949 0.0547497 0.0534309 0.0529202 0.0531905 0.0547701 0.0534308 0.0529524 0.0530143 0.0547604 0.052872 0.0533726 0.0546118 0.0530094 0.0530157 0.0535545 0.0532859 0.0546045 0.0535381 0.0529002 0.054638 0.053391 0.0545875 0.0533749 0.0533279 0.0530935 0.0546569 0.0534695 0.0532367 0.0529953 0.0546417 0.0534317 0.0531718 0.0530406 0.0545548 0.0534172 0.0533045 0.0531139 0.0545271 0.0541066 0.0536148 0.0532047 0.0545372 0.0537136 0.054071 0.0546123 0.0531947 0.0534973 0.0546144 0.0540706 0.0532791 0.0536336 0.0545735 0.0540321 0.0538267 0.0545732 0.0531756 0.0540015 0.0538839 0.0547019 0.0539737 0.0531111 0.054715 0.053937 0.0539839 0.0546724 0.0532651 0.0537211 0.054744 0.0539433 0.0537733 0.0533294 0.0547068 0.0539169 0.0538177 0.0532026 0.0538899 0.0535191 0.054708 0.0533299 0.0538945 0.0535983 0.0546663 0.0532865 0.0534316 0.053951 0.0546421 0.0531628 0.0534025 0.0539205 0.0546086 0.0538758 0.0534887 0.0532418 0.054679 0.0535588 0.0533423 0.053814 0.0546494 0.0535261 0.0537877 0.0534201 0.053818 0.0536709 0.0546364 0.05337 0.0538198 0.054343 0.0537217 0.053786 0.0534897 0.0543474 0.0537056 0.0535023 0.0537754 0.0534468 0.0536941 0.0543015 0.0536268 0.0534168 0.054292 0.0536197 0.0534885 0.054387 0.0535893 0.0537156 0.0535471 0.0543839 0.0536774 0.054335 0.0533086 0.0520429 0.0519448 0.0542378 0.0532437 0.0520688 0.0542255 0.0533786 0.0542834 0.052163 0.0533346 0.0543312 0.0519281 0.0532695 0.0538236 0.0518412 0.0542272 0.0538406 0.0533903 0.0520834 0.0542811 0.0520021 0.0534178 0.0538078 0.0544303 0.0534573 0.0544168 0.0537653 0.0522704 0.0535271 0.0537358 0.0543753 0.0522918 0.05372 0.05359 0.0544549 0.0524101 0.0537253 0.0534931 0.0544918 0.0523116 0.0536303 0.0544106 0.0535795 0.0521858 0.0544414 0.0535697 0.0521849 0.0536084 0.054368 0.0536278 0.0543233 0.0523117 0.0535515 0.0537035 0.0542683 0.0518893 0.0543829 0.0536428 0.0536974 0.0517507 0.0543422 0.0536321 0.0535554 0.05194 0.0542896 0.0536158 0.0516742 0.0536869 0.0535325 0.0518216 0.0541558 0.0536651 0.0519157 0.0540899 0.0537419 0.0536494 0.0518972 0.0535495 0.0538124 0.0540231 0.0520754 0.0536149 0.0520911 0.0540422 0.0538215 0.0535884 0.0521725 0.054174 0.0538257 0.0535583 0.052268 0.054117 0.0537554 0.0534566 0.0540834 0.0520068 0.0535161 0.0538989 0.0520063 0.0539414 0.0534114 0.0536826 0.0521469 0.0539574 0.0536527 0.0534531 0.052506 0.0537809 0.0534399 0.0538753 0.0526225 0.0537573 0.0533278 0.0540102 0.0525392 0.0536737 0.0523961 0.0539527 0.0537037 0.0537378 0.0524312 0.0536023 0.0542116 0.0538291 0.0524921 0.0541771 0.0537092 0.0538464 0.054153 0.0536062 0.0527577 0.0539058 0.0542325 0.0526518 0.0536021 0.054248 0.0535066 0.053986 0.0528574 0.0541983 0.0536007 0.0538965 0.054064 0.0526195 0.0534897 0.0540312 0.0539352 0.0535265 0.0527497 0.0541104 0.0533537 0.0534176 0.0526477 0.0539961 0.0533136 0.0534569 0.0522507 0.054151 0.0534681 0.053337 0.0523829 0.0541328 0.0533758 0.0524009 0.0540878 0.0533985 0.0521339 0.0533428 0.0534338 0.0540078 0.0522798 0.053545 0.0544821 0.0525139 0.0534739 0.0532878 0.054464 0.052541 0.0536377 0.05453 0.0532361 0.0526123 0.0536036 0.0544951 0.0533351 0.0535038 0.052379 0.0544456 0.0533176 0.0535827 0.0543653 0.0524916 0.0534033 0.0536413 0.0544106 0.0526108 0.0532785 0.0534354 0.0543116 0.0515939 0.054393 0.0532341 0.0533536 0.0517613 0.0543384 0.0534725 0.0532002 0.054371 0.0518018 0.0545596 0.0535047 0.0514967 0.0534051 0.0545085 0.0516611 0.0534752 0.0534821 0.0545176 0.0516643 0.053359 0.0517811 0.0545951 0.053373 0.0535601 0.0519129 0.0533721 0.0535654 0.0518953 0.0532427 0.0545948 0.0535373 0.0536254 0.0532575 0.0520094 0.0545527 0.0537087 0.0533628 0.0517835 0.0545545 0.0544302 0.0519537 0.053222 0.0536285 0.0544707 0.0518304 0.053256 0.0537107 0.0544045 0.051392 0.0531159 0.0537032 0.0515272 0.0531381 0.0516297 0.0532432 0.0544588 0.0516 0.0537666 0.053109 0.0514223 0.0545118 0.0538508 0.0513173 0.0531597 0.0537077 0.0544673 0.0514962 0.0537799 0.0529877 0.0544091 0.0538687 0.051469 0.0531163 0.0538202 0.0542737 0.051738 0.0530243 0.0542482 0.0539258 0.0516884 0.0531461 0.0542162 0.0517322 0.0539808 0.0529969 0.0543473 0.0518655 0.0539423 0.0542934 0.0529351 0.0540129 0.0516268 0.0542173 0.0529077 0.0541859 0.0515525 0.0540637 0.0540652 0.0517505 0.0539927 0.0540441 0.0541266 0.0521438 0.0537632 0.0540722 0.0539583 0.0522731 0.0538433 0.0541541 0.0522526 0.0539668 0.0539001 0.0541182 0.0520684 0.0538594 0.0540585 0.0543524 0.0520028 0.0543013 0.0521307 0.0537872 0.0538821 0.0542833 0.053911 0.0521974 0.0538662 0.053978 0.0543846 0.0520682 0.053823 0.0543307 0.0523636 0.054048 0.0542305 0.0537866 0.0524761 0.0540886 0.0541743 0.0538107 0.0523277 0.0537375 0.0539912 0.0541255 0.0523805 0.0539905 0.0541848 0.0519431 0.054057 0.0538877 0.0542053 0.051955 0.0539234 0.0540028 0.0542536 0.0521123 0.0539454 0.0518183 0.0538627 0.0541522 0.0541328 0.0518295 0.0538259 0.0541077 0.0538111 0.054135 0.0519903 0.0534935 0.0536497 0.0533147 0.0521101 0.0534583 0.0537206 0.0533841 0.0533956 0.0537394 0.0522139 0.053425 0.0535155 0.0536264 0.0523017 0.0532894 0.0535827 0.0532522 0.0537252 0.052061 0.0535228 0.0534403 0.0535488 0.0521743 0.0536701 0.0533833 0.053627 0.0533632 0.0536081 0.0535822 0.0521845 0.0531882 0.0535678 0.0536174 0.0532101 0.0537119 0.0529245 0.0531194 0.0536881 0.0536537 0.0530272 0.053616 0.0533018 0.0535681 0.0536989 0.0532367 0.0528498 0.0536343 0.0536837 0.0531645 0.0528215 0.0535266 0.0537675 0.0531483 0.0529697 0.0534552 0.0536431 0.0535208 0.0531112 0.0535957 0.0534889 0.0531843 0.0533752 0.0536525 0.0534293 0.0534285 0.0530627 0.0536906 0.0535905 0.0529515 0.0533313 0.0537572 0.0535723 0.0531208 0.0537031 0.0533846 0.0535052 0.0527077 0.053758 0.0535684 0.0533501 0.053715 0.0536465 0.0527405 0.0533198 0.05382 0.0535458 0.0528584 0.053231 0.0538004 0.0535063 0.0534211 0.0526054 0.0538047 0.0535372 0.0534762 0.0527381 0.0537641 0.0534333 0.0527593 0.0533543 0.0538557 0.0533826 0.0528617 0.0536997 0.0532892 0.0534791 0.0529871 0.0537431 0.0533798 0.0537471 0.0530687 0.0529976 0.0532703 0.0537957 0.0530766 0.0528676 0.0534248 0.0538472 0.0530591 0.0529748 0.0533573 0.0530187 0.0538647 0.0529356 0.0537903 0.0533228 0.052911 0.0531147 0.0537928 0.0530661 0.0538545 0.0532484 0.0538292 0.0529567 0.0537676 0.0538442 0.0533663 0.0528785 0.0538573 0.052882 0.053846 0.0534425 0.053901 0.0528124 0.0537682 0.0531879 0.053882 0.0537624 0.0527533 0.05341 0.0536893 0.0539252 0.0529165 0.053305 0.0536745 0.0539545 0.0528169 0.0535774 0.0535053 0.053859 0.052857 0.0535892 0.0538711 0.0536169 0.0531768 0.0536723 0.0538994 0.0531193 0.053938 0.0534976 0.0536304 0.0539081 0.0532298 0.0537155 0.0535142 0.053897 0.0531662 0.0530659 0.0537941 0.0539464 0.0534098 0.0530119 0.0539634 0.0537284 0.0529595 0.0539656 0.0535391 0.0536376 0.0529001 0.0532235 0.0539928 0.0529956 0.0531192 0.0536592 0.0540078 0.0530927 0.0531906 0.053004 0.0532923 0.0540051 0.0536395 0.0539904 0.0529098 0.0530512 0.0536128 0.0540338 0.0536325 0.0535389 0.0530883 0.0535676 0.0537111 0.0535594 0.0531427 0.0534488 0.053684 0.0537377 0.0532762 0.0534859 0.0533397 0.0536839 0.0535136 0.0536932 0.0534594 0.0537985 0.0535786 0.0534288 0.0534351 0.0537762 0.0536278 0.0533258 0.053783 0.0532112 0.0536299 0.0538282 0.0535218 0.053