# vtk DataFile Version 3.0
vtk output
ASCII
DATASET UNSTRUCTURED_GRID
POINTS 44482 float
0 0 0
0.00850212 0 0
0.0107593 0.012163 0
0.00798596 0.0142676 0
0 0.0143697 0
0 0 0
0.526395 0.045565 0
0.527729 0.0358506 0
0.533988 0.0325503 0
0.538399 0.0353187 0
0.537919 0.0474533 0
0.533208 0.0501886 0
0.526395 0.045565 0
0.00850212 0 0
0.0215225 0 0
0.0200358 0.0127864 0
0.0107593 0.012163 0
0.00850212 0 0
0.548811 0.0522212 0
0.547885 0.0499078 0
0.551501 0.0426022 0
0.559924 0.0409744 0
0.565281 0.0473074 0
0.556985 0.0557036 0
0.548811 0.0522212 0
0.0580308 0.541639 0
0.0648249 0.53607 0
0.0710819 0.5414 0
0.0713815 0.550092 0
0.0661061 0.552865 0
0.0615997 0.551923 0
0.0580308 0.541639 0
0.00798596 0.0142676 0
0.0107593 0.012163 0
0.0200358 0.0127864 0
0.0208052 0.013543 0
0.0195074 0.0248224 0
0.0122102 0.0264234 0
0.00798596 0.0142676 0
0.538399 0.0353187 0
0.545992 0.0337588 0
0.551501 0.0426022 0
0.547885 0.0499078 0
0.537919 0.0474533 0
0.538399 0.0353187 0
0.0200358 0.0127864 0
0.0215225 0 0
0.0322223 0 0
0.0291553 0.0137891 0
0.0208052 0.013543 0
0.0200358 0.0127864 0
0.0710819 0.5414 0
0.0794517 0.537748 0
0.0840483 0.540531 0
0.0848784 0.549998 0
0.0766124 0.552666 0
0.0713815 0.550092 0
0.0710819 0.5414 0
0.562431 0.0317757 0
0.559924 0.0409744 0
0.551501 0.0426022 0
0.545992 0.0337588 0
0.548982 0.0280237 0
0.562431 0.0317757 0
0 0.0143697 0
0.00798596 0.0142676 0
0.0122102 0.0264234 0
0.011217 0.0274934 0
0 0.0275841 0
0 0.0143697 0
0.0840483 0.540531 0
0.0938237 0.535243 0
0.094217 0.535418 0
0.0979747 0.542136 0
0.0959772 0.549657 0
0.0869601 0.551216 0
0.0848784 0.549998 0
0.0840483 0.540531 0
0.521809 0.0605838 0
0.53297 0.056377 0
0.537147 0.0612172 0
0.53278 0.0716803 0
0.521084 0.0680245 0
0.521809 0.0605838 0
0.011217 0.0274934 0
0.0122102 0.0264234 0
0.0195074 0.0248224 0
0.0215232 0.026195 0
0.0213129 0.0387576 0
0.0182137 0.0403756 0
0.012184 0.0388637 0
0.011217 0.0274934 0
0.53297 0.056377 0
0.533208 0.0501886 0
0.537919 0.0474533 0
0.547885 0.0499078 0
0.548811 0.0522212 0
0.54324 0.0613732 0
0.537147 0.0612172 0
0.53297 0.056377 0
0.0195074 0.0248224 0
0.0208052 0.013543 0
0.0291553 0.0137891 0
0.0332179 0.0167456 0
0.0290737 0.0259721 0
0.0215232 0.026195 0
0.0195074 0.0248224 0
0.0787098 0.52912 0
0.0864461 0.524684 0
0.0893915 0.525511 0
0.0938237 0.535243 0
0.0840483 0.540531 0
0.0794517 0.537748 0
0.0787098 0.52912 0
0.0215232 0.026195 0
0.0290737 0.0259721 0
0.032837 0.0304829 0
0.0305789 0.0401216 0
0.0213129 0.0387576 0
0.0215232 0.026195 0
0.0661061 0.552865 0
0.0713815 0.550092 0
0.0766124 0.552666 0
0.0775037 0.565125 0
0.0672143 0.567401 0
0.0661061 0.552865 0
0.54324 0.0613732 0
0.548811 0.0522212 0
0.556985 0.0557036 0
0.559002 0.0624693 0
0.557464 0.0660963 0
0.548394 0.0677375 0
0.54324 0.0613732 0
0.0386146 0.0162111 0
0.0409386 0.0118167 0
0.0510119 0.00946751 0
0.0541402 0.012772 0
0.0509092 0.0214712 0
0.0427668 0.0220577 0
0.0386146 0.0162111 0
0.0766124 0.552666 0
0.0848784 0.549998 0
0.0869601 0.551216 0
0.0883088 0.564693 0
0.0818001 0.567477 0
0.0775037 0.565125 0
0.0766124 0.552666 0
0.037043 0 0
0.0524231 0 0
0.0510119 0.00946751 0
0.0409386 0.0118167 0
0.037043 0 0
0.556221 0 0
0.57227 0 0
0.572139 0.00583356 0
0.569187 0.00947604 0
0.556439 0.00938483 0
0.556221 0 0
0.0322223 0 0
0.037043 0 0
0.0409386 0.0118167 0
0.0386146 0.0162111 0
0.0332179 0.0167456 0
0.0291553 0.0137891 0
0.0322223 0 0
0.0959772 0.549657 0
0.0979747 0.542136 0
0.109645 0.541912 0
0.112653 0.549069 0
0.111597 0.551473 0
0.101038 0.555094 0
0.0959772 0.549657 0
0.0510119 0.00946751 0
0.0524231 0 0
0.0623117 0 0
0.0625662 0.0129977 0
0.0541402 0.012772 0
0.0510119 0.00946751 0
0.555839 0.0101458 0
0.556439 0.00938483 0
0.569187 0.00947604 0
0.57019 0.0195959 0
0.564781 0.0231344 0
0.555887 0.0171386 0
0.555839 0.0101458 0
0.111724 0.536608 0
0.109645 0.541912 0
0.0979747 0.542136 0
0.094217 0.535418 0
0.107175 0.527851 0
0.111724 0.536608 0
0.0290737 0.0259721 0
0.0332179 0.0167456 0
0.0386146 0.0162111 0
0.0427668 0.0220577 0
0.0410288 0.0291506 0
0.032837 0.0304829 0
0.0290737 0.0259721 0
0.57227 0 0
0.589949 0 0
0.58993 0.00282309 0
0.581799 0.0106596 0
0.572139 0.00583356 0
0.57227 0 0
0.58993 0.00282309 0
0.596367 0.0124237 0
0.595922 0.0147838 0
0.588492 0.0194748 0
0.582793 0.0174279 0
0.581799 0.0106596 0
0.58993 0.00282309 0
0.111724 0.536608 0
0.122256 0.535388 0
0.125158 0.540214 0
0.123465 0.547252 0
0.112653 0.549069 0
0.109645 0.541912 0
0.111724 0.536608 0
0.569187 0.00947604 0
0.572139 0.00583356 0
0.581799 0.0106596 0
0.582793 0.0174279 0
0.576265 0.0216318 0
0.57019 0.0195959 0
0.569187 0.00947604 0
0.0586054 0.0399408 0
0.0551054 0.0311607 0
0.0566129 0.027236 0
0.0628117 0.0250818 0
0.0677002 0.0277044 0
0.0647937 0.0401445 0
0.0631818 0.0409812 0
0.0586054 0.0399408 0
0.575177 0.0351741 0
0.563594 0.0309208 0
0.564781 0.0231344 0
0.57019 0.0195959 0
0.576265 0.0216318 0
0.57772 0.0316913 0
0.575177 0.0351741 0
0.0551054 0.0311607 0
0.0441211 0.0338611 0
0.0410288 0.0291506 0
0.0427668 0.0220577 0
0.0509092 0.0214712 0
0.0566129 0.027236 0
0.0551054 0.0311607 0
0.0869601 0.551216 0
0.0959772 0.549657 0
0.101038 0.555094 0
0.100298 0.559223 0
0.091139 0.565484 0
0.0883088 0.564693 0
0.0869601 0.551216 0
0.0509092 0.0214712 0
0.0541402 0.012772 0
0.0625662 0.0129977 0
0.0634742 0.013727 0
0.0628117 0.0250818 0
0.0566129 0.027236 0
0.0509092 0.0214712 0
0.576265 0.0216318 0
0.582793 0.0174279 0
0.588492 0.0194748 0
0.5908 0.0306785 0
0.57772 0.0316913 0
0.576265 0.0216318 0
0 0.0275841 0
0.011217 0.0274934 0
0.012184 0.0388637 0
0.0112187 0.0393972 0
0 0.0389998 0
0 0.0275841 0
0.111597 0.551473 0
0.112653 0.549069 0
0.123465 0.547252 0
0.12797 0.553852 0
0.128057 0.555468 0
0.120256 0.563087 0
0.117509 0.56186 0
0.111597 0.551473 0
0.58993 0.00282309 0
0.589949 0 0
0.605473 0 0
0.605364 0.00816423 0
0.596367 0.0124237 0
0.58993 0.00282309 0
0 0.0389998 0
0.0112187 0.0393972 0
0.00876684 0.0528439 0
0 0.0526845 0
0 0.0389998 0
0.595922 0.0147838 0
0.596367 0.0124237 0
0.605364 0.00816423 0
0.612016 0.0127602 0
0.611845 0.018713 0
0.60248 0.0227555 0
0.595922 0.0147838 0
0.0182137 0.0403756 0
0.0213129 0.0387576 0
0.0305789 0.0401216 0
0.0310282 0.0406975 0
0.0282355 0.0515463 0
0.0255597 0.053376 0
0.0200972 0.051775 0
0.0182137 0.0403756 0
0.101038 0.555094 0
0.111597 0.551473 0
0.117509 0.56186 0
0.106537 0.566896 0
0.100298 0.559223 0
0.101038 0.555094 0
0.605473 0 0
0.619396 0 0
0.618115 0.00877659 0
0.612016 0.0127602 0
0.605364 0.00816423 0
0.605473 0 0
0.00876684 0.0528439 0
0.0112187 0.0393972 0
0.012184 0.0388637 0
0.0182137 0.0403756 0
0.0200972 0.051775 0
0.0126089 0.0559524 0
0.00876684 0.0528439 0
0 0.571314 0
0.00974933 0.569698 0
0.0150837 0.581172 0
0.0147878 0.581987 0
0.0146319 0.582105 0
0 0.580512 0
0 0.571314 0
0.618115 0.00877659 0
0.626934 0.0142901 0
0.62474 0.0210217 0
0.617014 0.0234044 0
0.611845 0.018713 0
0.612016 0.0127602 0
0.618115 0.00877659 0
0 0.0526845 0
0.00876684 0.0528439 0
0.0126089 0.0559524 0
0.012061 0.0613152 0
0.00903452 0.0646976 0
0 0.0645985 0
0 0.0526845 0
0.0147878 0.581987 0
0.0150837 0.581172 0
0.025614 0.57321 0
0.0260203 0.573226 0
0.0311419 0.577414 0
0.0259532 0.589862 0
0.0147878 0.581987 0
0.588492 0.0194748 0
0.595922 0.0147838 0
0.60248 0.0227555 0
0.601177 0.0285324 0
0.591654 0.0313677 0
0.5908 0.0306785 0
0.588492 0.0194748 0
0.0255597 0.053376 0
0.0282355 0.0515463 0
0.0385542 0.0545033 0
0.0378776 0.0639836 0
0.0349556 0.0655009 0
0.0265097 0.0620041 0
0.0255597 0.053376 0
0.0122668 0.566377 0
0.0176197 0.56503 0
0.025614 0.57321 0
0.0150837 0.581172 0
0.00974933 0.569698 0
0.0122668 0.566377 0
0.60248 0.0227555 0
0.611845 0.018713 0
0.617014 0.0234044 0
0.615733 0.0299107 0
0.605374 0.0331381 0
0.601177 0.0285324 0
0.60248 0.0227555 0
0 0.580512 0
0.0146319 0.582105 0
0.0107216 0.592409 0
0 0.59141 0
0 0.580512 0
0.012061 0.0613152 0
0.0126089 0.0559524 0
0.0200972 0.051775 0
0.0255597 0.053376 0
0.0265097 0.0620041 0
0.0226396 0.0648241 0
0.012061 0.0613152 0
0.617014 0.0234044 0
0.62474 0.0210217 0
0.629932 0.0261563 0
0.62775 0.0357433 0
0.620067 0.0354218 0
0.615733 0.0299107 0
0.617014 0.0234044 0
0 0.59141 0
0.0107216 0.592409 0
0.0121649 0.595161 0
0.00862632 0.605058 0
0 0.604292 0
0 0.59141 0
0.0411846 0.0522454 0
0.0409423 0.0423462 0
0.0431484 0.0406788 0
0.0527609 0.0441333 0
0.0531926 0.0548687 0
0.0523573 0.0556224 0
0.0411846 0.0522454 0
0.567224 0.0475435 0
0.57545 0.0371235 0
0.583351 0.0436644 0
0.582992 0.050624 0
0.572183 0.0529581 0
0.567224 0.0475435 0
0.0107216 0.592409 0
0.0146319 0.582105 0
0.0147878 0.581987 0
0.0259532 0.589862 0
0.0261434 0.590493 0
0.0217177 0.597324 0
0.0121649 0.595161 0
0.0107216 0.592409 0
0.0410288 0.0291506 0
0.0441211 0.0338611 0
0.0431484 0.0406788 0
0.0409423 0.0423462 0
0.0310282 0.0406975 0
0.0305789 0.0401216 0
0.032837 0.0304829 0
0.0410288 0.0291506 0
0.532012 0.547867 0
0.534422 0.547182 0
0.543894 0.55356 0
0.541599 0.560631 0
0.534561 0.563663 0
0.527477 0.556758 0
0.532012 0.547867 0
0.0399415 0.56459 0
0.0415881 0.568606 0
0.0326607 0.577551 0
0.0311419 0.577414 0
0.0260203 0.573226 0
0.0327145 0.5615 0
0.0350891 0.561424 0
0.0399415 0.56459 0
0.565281 0.0473074 0
0.559924 0.0409744 0
0.562431 0.0317757 0
0.563594 0.0309208 0
0.575177 0.0351741 0
0.57545 0.0371235 0
0.567224 0.0475435 0
0.565281 0.0473074 0
0.0415187 0.585471 0
0.0326607 0.577551 0
0.0415881 0.568606 0
0.0489466 0.572488 0
0.0492708 0.573527 0
0.0424617 0.585422 0
0.0415187 0.585471 0
0.550657 0.543414 0
0.556985 0.541102 0
0.563975 0.546017 0
0.560934 0.556168 0
0.557733 0.557549 0
0.548414 0.551458 0
0.550657 0.543414 0
0.583351 0.0436644 0
0.591987 0.0390627 0
0.598237 0.0443268 0
0.597991 0.0481365 0
0.587797 0.0553957 0
0.582992 0.050624 0
0.583351 0.0436644 0
0.0424617 0.585422 0
0.0492708 0.573527 0
0.0574624 0.579316 0
0.0582208 0.584756 0
0.0496243 0.589883 0
0.0424617 0.585422 0
0.57545 0.0371235 0
0.575177 0.0351741 0
0.57772 0.0316913 0
0.5908 0.0306785 0
[...]
CELL_DATA 6400
FIELD FieldData 3
weight 1 6400 float
 0.0526097 0.0548495 0.0526858 0.0548505 0.0526303 0.0527192 0.0548495 0.0527636 0.0527382 0.0548154 0.0526682 0.0528445 0.0549382 0.052785 0.0548805 0.0528011 0.0528545 0.0528517 0.0526149 0.054895 0.0529442 0.0527006 0.0528904 0.0546686 0.0528182 0.0529306 0.052975 0.0547185 0.0529878 0.0528842 0.0546422 0.0546625 0.0530447 0.0546953 0.0530939 0.0547499 0.0529941 0.0527925 0.0530217 0.0547334 0.0527081 0.0529844 0.0546116 0.0527536 0.0546478 0.0528723 0.0528973 0.0545905 0.0528102 0.0520262 0.0546105 0.0527616 0.0521139 0.0546944 0.0529705 0.0521193 0.0546793 0.0519571 0.0528831 0.054657 0.0518744 0.0530441 0.0548202 0.0520196 0.0529311 0.0543063 0.0522714 0.0548006 0.052294 0.0543294 0.0547915 0.0523287 0.0547681 0.0542746 0.0524498 0.054871 0.0521921 0.054537 0.0548569 0.0521633 0.0548773 0.0523182 0.0545354 0.0547265 0.0519281 0.0544901 0.0547082 0.0520594 0.054436 0.05472 0.0518327 0.0544659 0.0547596 0.051713 0.0544012 0.0517777 0.0548235 0.0544504 0.0518662 0.0547512 0.0519341 0.0544896 0.0547964 0.0520607 0.054446 0.0522291 0.0549491 0.0544046 0.052213 0.054981 0.0543624 0.0520687 0.0549721 0.0543476 0.0519861 0.0543823 0.0550239 0.054311 0.0521277 0.0550029 0.0542929 0.0550477 0.0524566 0.0549745 0.0542578 0.0525571 0.0549396 0.0543621 0.0525209 0.054936 0.0542704 0.0550187 0.0526593 0.0549885 0.0542657 0.0525897 0.0550597 0.0543144 0.0523748 0.0550775 0.0542219 0.0527901 0.0541741 0.0528605 0.0550924 0.0542225 0.0528718 0.0551098 0.0550502 0.0525943 0.0541978 0.0550463 0.052698 0.0550173 0.0542491 0.0527178 0.0550792 0.0540718 0.0550816 0.0528273 0.0541221 0.0550512 0.0523186 0.0541459 0.0550826 0.054089 0.0525104 0.0549129 0.0542267 0.0524462 0.0549044 0.054181 0.0549038 0.0523093 0.0541766 0.0549838 0.0522549 0.0540624 0.0549456 0.052416 0.0549477 0.0541347 0.0548558 0.0523874 0.0540728 0.0548845 0.0526179 0.0539579 0.0548272 0.0526836 0.0540339 0.0549335 0.0526364 0.0548764 0.0539529 0.0549216 0.0540173 0.0525243 0.0550198 0.0549772 0.0538755 0.0525494 0.055051 0.0539179 0.0533351 0.0550449 0.0538568 0.0550162 0.0539932 0.0532807 0.0549643 0.0539765 0.054952 0.0534517 0.0539807 0.0534488 0.0548986 0.0538706 0.0532681 0.0550006 0.0539033 0.0549384 0.0541909 0.0532325 0.0542319 0.0533629 0.0549796 0.0541626 0.0549869 0.05354 0.0541287 0.0545583 0.0536294 0.0545211 0.0540402 0.0544918 0.0540963 0.0536624 0.0545397 0.0540552 0.0534199 0.0541186 0.054632 0.0535621 0.0545867 0.0540667 0.0545677 0.0534932 0.0541168 0.054503 0.0540137 0.0531665 0.0544314 0.0544505 0.0539597 0.0532298 0.0543878 0.053313 0.0545311 0.0540119 0.054472 0.0531215 0.0539399 0.0545252 0.0531146 0.0539994 0.0546897 0.0532229 0.0538295 0.0546339 0.0533883 0.0538895 0.0547316 0.0534779 0.0546742 0.0537866 0.053299 0.0546008 0.0538896 0.0531891 0.0545933 0.0539396 0.0533753 0.0545513 0.053896 0.0546529 0.0537441 0.0538265 0.0546703 0.053835 0.0546061 0.0538289 0.0537926 0.0543951 0.0535821 0.054333 0.0543271 0.0536508 0.054433 0.0542954 0.0536596 0.0542599 0.0544026 0.0537398 0.054406 0.0543562 0.0537447 0.0543531 0.0543792 0.0543896 0.053834 0.054193 0.0543166 0.0541842 0.0539151 0.0543045 0.0541203 0.0542675 0.0539943 0.0542608 0.0541678 0.0542952 0.0539145 0.0542135 0.0543483 0.0538357 0.05449 0.054249 0.0545122 0.053839 0.0542641 0.0544355 0.053575 0.054428 0.0541552 0.0535857 0.054213 0.0545747 0.0536765 0.0542141 0.0544804 0.0542186 0.0545206 0.0534605 0.0541705 0.0535019 0.0542894 0.0536947 0.0543697 0.0541626 0.0543277 0.053764 0.0541151 0.0542622 0.0540703 0.0537775 0.0541689 0.0543894 0.0536055 0.0541197 0.0544155 0.0536133 0.054118 0.0543195 0.0540114 0.0536969 0.0540697 0.0548156 0.0529711 0.0540081 0.0547799 0.0529948 0.0542002 0.054706 0.0530938 0.0547607 0.0541414 0.0530709 0.0548667 0.0529168 0.0547577 0.0541909 0.0530172 0.0548038 0.053126 0.0541116 0.0547114 0.0540637 0.0532407 0.0546397 0.0533271 0.054746 0.054072 0.0546878 0.0532337 0.0541265 0.0546998 0.0531446 0.0530337 0.054898 0.0539917 0.0548607 0.0531682 0.0548619 0.0540314 0.052804 0.0548056 0.0539964 0.0528354 0.0539739 0.0549323 0.0529171 0.0529458 0.0548936 0.0539201 0.0527794 0.0547951 0.0540599 0.0547463 0.0526804 0.0540154 0.0548435 0.0539783 0.0527516 0.0548375 0.0539582 0.0528377 0.0547796 0.0539257 0.0529493 0.0538249 0.0545856 0.0530463 0.0546354 0.0538904 0.0530698 0.0545349 0.0538741 0.0528419 0.0545213 0.053894 0.0546432 0.0529431 0.0545868 0.0538038 0.0533979 0.0545808 0.0538036 0.0535211 0.0544525 0.053405 0.0540698 0.054459 0.0533144 0.05402 0.0543857 0.0532538 0.0539706 0.0533303 0.0539321 0.0543948 0.0539751 0.0545185 0.0534359 0.0539079 0.054458 0.053527 0.0539619 0.0546891 0.053887 0.0536029 0.0547124 0.0538565 0.0534167 0.0546354 0.0538092 0.0547393 0.053499 0.0538797 0.0546291 0.0531273 0.0538097 0.0532195 0.0547084 0.0539038 0.0533177 0.0545686 0.0538407 0.0537777 0.0530243 0.0544971 0.0531099 0.0537323 0.0545118 0.0531166 0.0537089 0.054626 0.0532061 0.0537989 0.0545646 0.0533936 0.0537042 0.0532946 0.0545552 0.0536746 0.0537328 0.0534617 0.0536237 0.0532025 0.0551242 0.0536109 0.0551125 0.053902 0.0533049 0.0530403 0.0538578 0.0551444 0.053765 0.0531161 0.0551692 0.0533186 0.053049 0.0515887 0.0529629 0.0551833 0.0517145 0.0551813 0.0531573 0.0551645 0.0518219 0.0530408 0.0515196 0.0551462 0.0531044 0.0515884 0.0531732 0.0551133 0.0516676 0.0532244 0.0551116 0.0517492 0.0530955 0.0551694 0.0516755 0.0532687 0.0551445 0.0531882 0.051903 0.0551504 0.0532772 0.0520754 0.0552134 0.0532791 0.055214 0.0533537 0.0520163 0.0552021 0.0519352 0.0533467 0.0552211 0.0518688 0.0534505 0.0552286 0.0518259 0.0533753 0.0551897 0.0534713 0.0519759 0.0552024 0.0514012 0.0551754 0.0531674 0.055221 0.0515746 0.0531941 0.0552191 0.0515149 0.0532651 0.0552012 0.051315 0.0532926 0.0514157 0.0550741 0.0532304 0.0514751 0.0550681 0.0534165 0.0517495 0.0550952 0.0533576 0.0516973 0.0551179 0.0533457 0.0551215 0.0518344 0.0534598 0.0550169 0.0516136 0.051744 0.0550155 0.0535182 0.0550897 0.0517312 0.0534253 0.0550584 0.0521597 0.0535015 0.0550491 0.0523124 0.0551528 0.0534471 0.0551537 0.0535451 0.0522873 0.0551779 0.0528812 0.0520865 0.0551774 0.0527994 0.0551526 0.0522182 0.052972 0.0551164 0.0529777 0.0550813 0.0524158 0.0528903 0.0550407 0.052415 0.0529112 0.0550745 0.052838 0.0525371 0.0551427 0.0529934 0.0551097 0.0522998 0.0530547 0.0550952 0.053198 0.0524118 0.055245 0.0531234 0.0520665 0.0531481 0.0519676 0.0531269 0.0552434 0.0520245 0.0552396 0.0530535 0.0518954 0.0530813 0.055253 0.0518567 0.0552476 0.0532457 0.0520463 0.0552305 0.0528794 0.0552314 0.0519486 0.052962 0.0552164 0.0521602 0.0530211 0.0552415 0.0529099 0.0522929 0.0552274 0.0529841 0.0522694 0.0552595 0.0530587 0.0521366 0.0552532 0.0531655 0.0552543 0.0520633 0.0532896 0.0521609 0.0532218 0.0552649 0.0512381 0.0531656 0.0552617 0.0513668 0.0531254 0.051352 0.0552545 0.0512728 0.0552497 0.0533179 0.0511299 0.0552281 0.0532278 0.051064 0.0552364 0.0532816 0.0552419 0.0511545 0.0534258 0.0552462 0.0512572 0.0533432 0.051487 0.0552332 0.0533718 0.0533595 0.0516099 0.0551969 0.0551851 0.0515773 0.0551721 0.0532968 0.051358 0.0552197 0.0534723 0.0514215 0.0552085 0.0534982 0.0515033 0.0551691 0.0551927 0.0515191 0.053573 0.0551327 0.0509887 0.0535971 0.0551584 0.051094 0.0535482 0.0551055 0.051156 0.0551326 0.0536563 0.0508754 0.0551059 0.0536275 0.0509791 0.0552066 0.0533186 0.0551827 0.0534171 0.0509186 0.0534559 0.0552122 0.0551903 0.0533844 0.0510264 0.0551575 0.0535037 0.0551371 0.0513157 0.0534541 0.0551398 0.0511704 0.0536228 0.0551666 0.0535299 0.0513753 0.0551644 0.0537119 0.0551394 0.0537036 0.0512646 0.0549697 0.0535927 0.054908 0.0512493 0.0549288 0.0536761 0.0516484 0.0550026 0.0537529 0.0517341 0.0549933 0.053435 0.054942 0.0535245 0.051917 0.0549598 0.0535497 0.0548826 0.053597 0.0518153 0.0548568 0.0535551 0.0518274 0.054796 0.053528 0.0516645 0.0548813 0.0536916 0.0548461 0.0536129 0.0515656 0.0548175 0.0536188 0.0550332 0.0536577 0.0517283 0.0550077 0.0537532 0.0537225 0.0549793 0.0519696 0.0537528 0.0550539 0.0536726 0.0521068 0.0537792 0.0550245 0.0549518 0.0538451 0.0518518 0.054921 0.0538218 0.0548808 0.0518507 0.0535993 0.0549751 0.0536369 0.0549381 0.0519619 0.0537323 0.0548832 0.0519698 0.0549161 0.0536311 0.0537114 0.0515486 0.054754 0.0537135 0.0547349 0.0516223 0.0538005 0.0547054 0.0516163 0.0538595 0.0547847 0.0547505 0.0539402 0.0515398 0.0538946 0.0546048 0.0538145 0.054666 0.0513965 0.0539542 0.0514078 0.0545376 0.0538633 0.0517126 0.0538222 0.0546152 0.0538826 0.0517269 0.0546464 0.0539857 0.0546891 0.053936 0.0518291 0.0545708 0.0540124 0.0518643 0.0548216 0.0539313 0.0537833 0.0548607 0.0540471 0.0515944 0.0539873 0.0547964 0.0537756 0.0516908 0.0541016 0.0536842 0.0548268 0.0526594 0.0547679 0.0537355 0.0540759 0.052732 0.0547601 0.0540762 0.0537165 0.052617 0.0547086 0.0541383 0.0535798 0.0523891 0.0545917 0.0541488 0.0536743 0.0524732 0.0546616 0.0539251 0.0547173 0.0525215 0.0540092 0.0535677 0.0546792 0.0526098 0.0541009 0.0536507 0.0546141 0.0528414 0.0540241 0.0537016 0.0527129 0.0540151 0.053598 0.0550697 0.0529164 0.0540859 0.0550728 0.0536793 0.0540925 0.0550368 0.0526593 0.0535926 0.0550786 0.0541621 0.0527679 0.0550447 0.0535117 0.054195 0.0549892 0.0528215 0.0534199 0.0549485 0.0542215 0.0523255 0.0535091 0.0549969 0.0523733 0.053593 0.0550052 0.0542423 0.0525027 0.0549598 0.054166 0.0534816 0.054907 0.0521978 0.0542702 0.0534928 0.0550773 0.0537759 0.0524149 0.0535013 0.0551114 0.0536923 0.0522907 0.0550496 0.0534122 0.0537959 0.0525565 0.055107 0.0533918 0.0538525 0.0526762 0.0525756 0.0537437 0.0550735 0.0537784 0.0538305 0.0524854 0.0550492 0.0537589 0.0538965 0.0523504 0.0549674 0.0538737 0.052467 0.0550091 0.0536773 0.053968 0.0549243 0.0525631 0.0539887 0.0536513 0.0549158 0.0539298 0.0530116 0.0550014 0.0536978 0.053976 0.0529929 0.0549625 0.054053 0.0538164 0.0529151 0.0540473 0.0549289 0.0538252 0.0528593 0.0548894 0.0537698 0.0537915 0.0531092 0.0547838 0.0537229 0.0538079 0.0548229 0.0537125 0.0531927 0.0538824 0.0548636 0.0536634 0.0538725 0.0531227 0.0548467 0.0536125 0.0548026 0.0538202 0.053217 0.053593 0.0547151 0.0539525 0.0530068 0.0535043 0.0539608 0.0546221 0.0530386 0.0547375 0.0535362 0.0546717 0.0540373 0.0530751 0.0546839 0.0533963 0.0527912 0.05411 0.0548699 0.0534893 0.0548113 0.0526718 0.0540218 0.0548253 0.052795 0.0534082 0.0541008 0.0548835 0.0535547 0.0527535 0.0540504 0.0548375 0.0536039 0.0526496 0.0541599 0.0547637 0.0535053 0.0541388 0.0526809 0.0547516 0.0533799 0.0541042 0.0528726 0.0546918 0.0534834 0.0542197 0.0529138 0.0547804 0.0534478 0.0542577 0.052959 0.0547149 0.0541768 0.0537757 0.0527604 0.0542427 0.0537281 0.0528388 0.0546368 0.0536763 0.0543246 0.0540691 0.0529088 0.0543188 0.0536719 0.0540693 0.0543019 0.0536228 0.0539843 0.0520795 0.0541389 0.0537181 0.0521852 0.0543717 0.0540036 0.0522211 0.0541259 0.0537237 0.0540887 0.0542114 0.0519727 0.0539259 0.0536569 0.0542973 0.0539397 0.0521006 0.0536149 0.0538456 0.0541789 0.0521328 0.0535571 0.0539951 0.0523457 0.0542312 0.0538871 0.0535604 0.0542658 0.0539504 0.0524471 0.0535594 0.0543287 0.0535044 0.0541849 0.0523285 0.0543366 0.0540712 0.0534149 0.0522301 0.0544087 0.0541524 0.0534488 0.0522086 0.0543742 0.0533856 0.0543116 0.0518944 0.0534953 0.054407 0.0542374 0.0520253 0.0534459 0.0542345 0.0544496 0.0534358 0.0517408 0.052929 0.0541691 0.0533421 0.0530141 0.0533829 0.051832 0.0541674 0.0532691 0.0540408 0.0531084 0.0517774 0.0539372 0.0530888 0.05192 0.0533035 0.0529565 0.0540173 0.052134 0.0533088 0.0530368 0.0541052 0.0520363 0.0533016 0.053125 0.0540899 0.0521041 0.0531697 0.0522 0.0532216 0.0539995 0.0538143 0.0532417 0.0532108 0.0519874 0.0537914 0.0537294 0.0532682 0.0533274 0.0519386 0.0536668 0.0532184 0.0533428 0.0537391 0.0520899 0.0533583 0.0538534 0.0531954 0.0525319 0.0532718 0.0537746 0.0531651 0.0525672 0.0530521 0.0537143 0.0532367 0.0529731 0.0524342 0.0535854 0.0531382 0.0531186 0.053502 0.0523181 0.0531314 0.0534818 0.0524172 0.0530244 0.0529881 0.0536332 0.0530733 0.0531011 0.0536654 0.0527117 0.0531624 0.0535912 0.0530927 0.0526453 0.053286 0.0535349 0.0527923 0.0532788 0.0529288 0.0538683 0.0531983 0.0529897 0.0525545 0.0537926 0.053367 0.0529844 0.0525128 0.0532084 0.0539375 0.0526736 0.0528855 0.0538563 0.0532835 0.0529844 0.0525961 0.0533612 0.0538362 0.0530881 0.0523024 0.0536674 0.0534278 0.0530587 0.0523596 0.053695 0.0533866 0.0528549 0.0522583 0.0535948 0.0535293 0.0537644 0.0521849 0.052823 0.0534688 0.053749 0.052052 0.0528787 0.0535481 0.053665 0.052945 0.0534797 0.0521218 0.0543336 0.0534315 0.0532097 0.0524334 0.0542673 0.0534043 0.0533068 0.0524886 0.0543398 0.0535795 0.0533139 0.0524144 0.0536705 0.0544058 0.0532632 0.0523696 0.0531073 0.0542667 0.0536136 0.0530675 0.0522995 0.0542157 0.0537362 0.0531759 0.0541321 0.0536462 0.0522383 0.0540995 0.0532312 0.0537353 0.0531338 0.0540412 0.052287 0.0541823 0.0537834 0.0531905 0.0541499 0.0535199 0.0531525 0.0540014 0.0534588 0.0544384 0.0530362 0.054071 0.0536099 0.0530425 0.0543721 0.0543058 0.0540794 0.0535026 0.0530639 0.0535614 0.0543366 0.0530159 0.05392 0.0536453 0.0529142 0.0539954 0.0544848 0.0536789 0.0529787 0.0539774 0.0537539 0.0544125 0.0528988 0.0537924 0.0543904 0.0528512 0.0541573 0.0538394 0.0542361 0.0527866 0.0541507 0.0536719 0.0541208 0.0529407 0.0537293 0.0542175 0.0542029 0.0529573 0.0540577 0.0538127 0.0528589 0.05432 0.0541261 0.0530055 0.0542737 0.052816 0.0530068 0.0538481 0.0542436 0.0538985 0.0530759 0.0541707 0.0539161 0.0531592 0.0527159 0.0540016 0.0537547 0.0532195 0.0538977 0.0536271 0.0537663 0.0530918 0.0539197 0.0536228 0.0538359 0.0530127 0.0539784 0.0538111 0.0540312 0.0536094 0.0531684 0.0539626 0.0540666 0.053279 0.0535035 0.0540423 0.0539488 0.0534551 0.0537781 0.0535426 0.0540787 0.0538037 0.0533701 0.0534132 0.0538786 0.0532481 0.0537039 0.0539519 0.0535199 0.0538418 0.0533255 0.0539235 0.0538595 0.053565 0.053378 0.0537644 0.0542812 0.0534502 0.0535117 0.0537106 0.0542509 0.0534224 0.0530132 0.0540914 0.0535153 0.0530775 0.0543302 0.0539653 0.0534565 0.0542918 0.0531503 0.0539227 0.0533844 0.0541904 0.0530678 0.0540096 0.0533856 0.0530023 0.0541503 0.0541325 0.0534309 0.0531782 0.0542046 0.0540523 0.0533078 0.0543286 0.0531583 0.0532957 0.0539958 0.0533409 0.054372 0.0538861 0.0532017 0.0532649 0.0533204 0.0544041 0.0537451 0.0532438 0.0533345 0.0538172 0.054364 0.0534069 0.0532481 0.0532153 0.0533999 0.0538425 0.0544408 0.0531329 0.0539199 0.0532412 0.0531433 0.0542407 0.0534275 0.0533203 0.0532344 0.0534091 0.05428 0.0534154 0.0533569 0.0533917 0.0543153 0.0532902 0.053416 0.0534574 0.0532932 0.0540858 0.0533274 0.053529 0.0535068 0.0540201 0.053286 0.0535696 0.054142 0.0533591 0.0533097 0.0539843 0.0535375 0.0533788 0.0532146 0.0532142 0.0540461 0.0536115 0.0531302 0.0533202 0.0541846 0.0536594 0.0532152 0.0542277 0.0530407 0.0532218 0.053782 0.054098 0.0531277 0.0536877 0.0533117 0.0532887 0.0541368 0.0538644 0.0531252 0.0532219 0.0538121 0.0532074 0.0541817 0.0537424 0.0531256 0.053478 0.0536777 0.0532 0.0538173 0.0535595 0.0536631 0.0531583 0.0538812 0.0533961 0.0531039 0.0537291 0.0535327 0.0534489 0.0535523 0.0530509 0.0534834 0.0536073 0.0530717 0.053646 0.053582 0.0535466 0.0535836 0.0529823 0.0536187 0.053511 0.0531218 0.0537926 0.0535224 0.053447 0.0530411 0.0538218 0.0536534 0.0532336 0.0530149 0.0538514 0.0536056 0.0533213 0.0536843 0.0537912 0.0531622 0.0529293 0.0537544 0.0537188 0.0531853 0.0537145 0.0529307 0.0533157 0.0538972 0.0531984 0.0534199 0.0533549 0.0538865 0.0531014 0.0535794 0.053234 0.0537069 0.0534991 0.0530826 0.0532609 0.0533916 0.0530104 0.0530398 0.0537497 0.0529718 0.0531026 0.0534685 0.0529064 0.0530213 0.0538993 0.0536501 0.0528288 0.0536084 0.0538095 0.0530291 0.0530733 0.0529889 0.0536669 0.0529342 0.0538356 0.0529992 0.0535309 0.0529929 0.0538943 0.0529164 0.0529081 0.0534933 0.0529174 0.0539686 0.0528231 0.052951 0.0539662 0.0535547 0.0527508 0.0526325 0.0539439 0.0529048 0.0538846 0.0526934 0.0539029 0.0527972 0.0539998 0.0528286 0.0526733 0.053947 0.0538495 0.0528396 0.052751 0.0537735 0.0540294 0.052754 0.0527093 0.0538435 0.0530652 0.054098 0.0539009 0.0528151 0.0530942 0.0540387 0.0540438 0.0526989 0.0529741 0.0539906 0.0541705 0.0528852 0.0531525 0.0528266 0.0541568 0.0540869 0.0530754 0.0528182 0.0540984 0.0538853 0.0529844 0.0541603 0.0538456 0.0526607 0.0528775 0.0539698 0.0539511 0.0527727 0.0527411 0.0539014 0.0527297 0.0539349 0.0528208 0.0525991 0.0537349 0.0540555 0.0537877 0.0529231 0.0540163 0.0526249 0.0528588 0.0527203 0.0536287 0.0539814 0.0527878 0.0529301 0.0536333 0.0538928 0.0535984 0.0529584 0.0536791 0.0540738 0.0528644 0.0537438 0.0536515 0.0540908 0.0528452 0.0538325 0.0541494 0.0535001 0.0527993 0.0537897 0.0542153 0.0536681 0.0536909 0.0541447 0.0528943 0.0535 0.0542186 0.0537327 0.0535916 0.0527985 0.0534176 0.054228 0.0527621 0.0543984 0.0534138 0.0527781 0.054287 0.0544699 0.0532629 0.0543712 0.052684 0.0544969 0.0542254 0.052681 0.0533333 0.0544592 0.0527246 0.054295 0.05342 0.054362 0.0526987 0.0543522 0.0533361 0.0543774 0.0543662 0.0525762 0.0536836 0.0544111 0.0536726 0.0544318 0.0525492 0.0544773 0.0535865 0.0544695 0.0526086 0.053575 0.0545507 0.0526564 0.0537303 0.054517 0.0545137 0.0525556 0.0544334 0.0537679 0.05441 0.0525518 0.054499 0.0536549 0.0544367 0.0542936 0.0524837 0.053442 0.054359 0.0542708 0.0535065 0.052394 0.0542979 0.0543282 0.0533557 0.0542892 0.0542924 0.0524553 0.0535831 0.0542376 0.0544252 0.0541892 0.0543615 0.0539034 0.053499 0.0542347 0.0544241 0.0535138 0.0543335 0.0538862 0.0545562 0.0533758 0.0543827 0.053788 0.054562 0.0534307 0.0543641 0.054499 0.0538337 0.0542716 0.0531561 0.0544929 0.0531538 0.0542984 0.0538178 0.0545218 0.0530656 0.0537152 0.0545467 0.0531745 0.0545924 0.0545562 0.0532611 0.053834 0.0539321 0.0544919 0.0530895 0.0539881 0.0537408 0.0530581 0.0544718 0.0541102 0.0536415 0.0529564 0.0544922 0.0540305 0.0536943 0.0529735 0.054547 0.0539779 0.0535874 0.0528798 0.05407 0.052821 0.054598 0.0541656 0.0537846 0.0529943 0.0529001 0.0541834 0.0536908 0.0545265 0.0528471 0.0542313 0.0536597 0.0532432 0.0541399 0.0537549 0.054594 0.0533157 0.0542595 0.0537099 0.0544783 0.0542146 0.0532314 0.053619 0.0531582 0.0544607 0.053974 0.0535897 0.054403 0.0533268 0.0540526 0.0536196 0.054426 0.0535243 0.0540499 0.054348 0.0532072 0.0535563 0.0543193 0.0531321 0.0540402 0.0534621 0.0543318 0.053131 0.0542554 0.0534034 0.0539704 0.0530347 0.0544049 0.0541228 0.0535673 0.0529635 0.0544147 0.0541289 0.0530798 0.0536018 0.0543959 0.0541983 0.0529488 0.0536648 0.0528888 0.0543144 0.0542908 0.0535055 0.0530543 0.054344 0.0542896 0.0529901 0.0535465 0.0541372 0.0542022 0.0528975 0.0534783 0.0540801 0.0534354 0.0544421 0.0542902 0.0541413 0.0533662 0.054319 0.0539876 0.0544663 0.0544447 0.0540363 0.0543692 0.054392 0.0534153 0.0540392 0.0543111 0.0541212 0.0545099 0.0532872 0.0543522 0.0541818 0.0543995 0.0545092 0.0532686 0.0541574 0.0544673 0.0544331 0.0533444 0.0542206 0.0545169 0.0542948 0.054083 0.0531957 0.0542598 0.0546043 0.0540204 0.0534638 0.0540652 0.0545632 0.0542083 0.0533141 0.054482 0.0538911 0.054353 0.0534223 0.0539757 0.0545633 0.0543077 0.0532878 0.0539334 0.0543641 0.0545512 0.0533571 0.0544367 0.0537882 0.0544187 0.0532521 0.0543661 0.0538345 0.0544701 0.0532152 0.0538658 0.0544798 0.0545622 0.0531553 0.0537743 0.0544266 0.0544958 0.0531262 0.0539144 0.0544955 0.0545535 0.0531696 0.0539531 0.0543415 0.0545155 0.0539763 0.0530299 0.0543977 0.0538167 0.0542759 0.0535366 0.0546326 0.0538508 0.0542534 0.0545969 0.0544216 0.0536269 0.0542367 0.0543525 0.0545051 0.0541653 0.0535207 0.0542913 0.0542462 0.0545772 0.0534783 0.0541501 0.0541624 0.0541663 0.0534441 0.0540749 0.0540269 0.0541686 0.0534027 0.054232 0.0542319 0.054079 0.0534774 0.0542496 0.0542089 0.0533567 0.054256 0.0541918 0.0541538 0.0533877 0.0540588 0.0542021 0.0542566 0.0533336 0.0541109 0.0543188 0.0532079 0.0541487 0.0543567 0.0539535 0.0543125 0.0532817 0.0541721 0.0538804 0.0542