# vtk DataFile Version 3.0
vtk output
ASCII
DATASET UNSTRUCTURED_GRID
POINTS 44490 float
0 0 0
0.0132769 0 0
0.00961878 0.0118356 0
0 0.0117148 0
0 0 0
0.414094 0.458539 0
0.423729 0.452725 0
0.430381 0.459558 0
0.424836 0.469314 0
0.414689 0.466069 0
0.414094 0.458539 0
0.00961878 0.0118356 0
0.0132769 0 0
0.0230411 0 0
0.0236358 0.00214286 0
0.0174019 0.0145477 0
0.0105311 0.0127571 0
0.00961878 0.0118356 0
0.424836 0.469314 0
0.430381 0.459558 0
0.436092 0.459028 0
0.441242 0.468661 0
0.435252 0.474943 0
0.426591 0.473079 0
0.424836 0.469314 0
0.970992 0.37557 0
0.978077 0.383604 0
0.977269 0.386337 0
0.971564 0.389286 0
0.960986 0.381483 0
0.960984 0.381467 0
0.966272 0.375254 0
0.970992 0.37557 0
0.0213388 0.0189886 0
0.0174019 0.0145477 0
0.0236358 0.00214286 0
0.0336611 0.0125568 0
0.0213388 0.0189886 0
0.383501 0.465257 0
0.384567 0.465808 0
0.387276 0.47299 0
0.382311 0.480555 0
0.37251 0.478837 0
0.371036 0.469837 0
0.383501 0.465257 0
0.0230411 0 0
0.0406642 0 0
0.0374592 0.0107042 0
0.0337854 0.0125854 0
0.0336611 0.0125568 0
0.0236358 0.00214286 0
0.0230411 0 0
0.408157 0.945099 0
0.415063 0.944326 0
0.416667 0.945462 0
0.415077 0.962047 0
0.411303 0.962972 0
0.409748 0.961939 0
0.405006 0.949946 0
0.408157 0.945099 0
0.978077 0.383604 0
0.98584 0.378582 0
0.987288 0.379059 0
0.991719 0.386672 0
0.986426 0.394545 0
0.98426 0.394424 0
0.977269 0.386337 0
0.978077 0.383604 0
0 0.0255476 0
0.00855016 0.0261056 0
0.00977358 0.0271015 0
0.0107427 0.0360501 0
0.00591873 0.0397974 0
0 0.0398823 0
0 0.0255476 0
1 0.371078 0
1 0.387989 0
0.991719 0.386672 0
0.987288 0.379059 0
1 0.371078 0
0.368764 0.483048 0
0.37251 0.478837 0
0.382311 0.480555 0
0.384626 0.48649 0
0.379855 0.494362 0
0.371246 0.491729 0
0.368764 0.483048 0
0.00977358 0.0271015 0
0.021678 0.0246232 0
0.0229119 0.0260574 0
0.0222089 0.0345072 0
0.0182529 0.0381786 0
0.0107427 0.0360501 0
0.00977358 0.0271015 0
0.427941 0.944757 0
0.439484 0.949569 0
0.439656 0.950227 0
0.435439 0.959612 0
0.433626 0.960325 0
0.42662 0.958394 0
0.42476 0.94686 0
0.427941 0.944757 0
0 0.0117148 0
0.00961878 0.0118356 0
0.0105311 0.0127571 0
0.00855016 0.0261056 0
0 0.0255476 0
0 0.0117148 0
0.410285 0.470183 0
0.411771 0.47937 0
0.409386 0.482099 0
0.398436 0.48242 0
0.395974 0.475004 0
0.401783 0.46811 0
0.410285 0.470183 0
0.394624 0.963589 0
0.395137 0.964274 0
0.395705 0.970339 0
0.387239 0.977755 0
0.385428 0.977543 0
0.381178 0.972364 0
0.384581 0.962665 0
0.394624 0.963589 0
0.387276 0.47299 0
0.395974 0.475004 0
0.398436 0.48242 0
0.395343 0.487818 0
0.384626 0.48649 0
0.382311 0.480555 0
0.387276 0.47299 0
0.0105311 0.0127571 0
0.0174019 0.0145477 0
0.0213388 0.0189886 0
0.021678 0.0246232 0
0.00977358 0.0271015 0
0.00855016 0.0261056 0
0.0105311 0.0127571 0
0.960259 0.401776 0
0.96234 0.398102 0
0.969348 0.395599 0
0.976 0.402784 0
0.9711 0.409393 0
0.96684 0.410474 0
0.960259 0.401776 0
0.369763 0.972751 0
0.3719 0.971201 0
0.381178 0.972364 0
0.385428 0.977543 0
0.376597 0.985496 0
0.370684 0.982864 0
0.369763 0.972751 0
0.384626 0.48649 0
0.395343 0.487818 0
0.397242 0.49364 0
0.392692 0.500173 0
0.381241 0.498164 0
0.379855 0.494362 0
0.384626 0.48649 0
0.021678 0.0246232 0
0.0213388 0.0189886 0
0.0336611 0.0125568 0
0.0337854 0.0125854 0
0.0352992 0.0233409 0
0.0327653 0.0261028 0
0.0229119 0.0260574 0
0.021678 0.0246232 0
0.969348 0.395599 0
0.971564 0.389286 0
0.977269 0.386337 0
0.98426 0.394424 0
0.97649 0.402702 0
0.976 0.402784 0
0.969348 0.395599 0
0.395137 0.964274 0
0.409748 0.961939 0
0.411303 0.962972 0
0.408868 0.972859 0
0.403746 0.97575 0
0.395705 0.970339 0
0.395137 0.964274 0
0.0222089 0.0345072 0
0.0229119 0.0260574 0
0.0327653 0.0261028 0
0.0361759 0.0391132 0
0.0345606 0.0399922 0
0.0222089 0.0345072 0
0.394543 0.506817 0
0.392692 0.500173 0
0.397242 0.49364 0
0.407759 0.496447 0
0.407892 0.507475 0
0.407112 0.508166 0
0.394543 0.506817 0
0.986426 0.394545 0
0.991719 0.386672 0
1 0.387989 0
1 0.399464 0
0.991846 0.399774 0
0.986426 0.394545 0
0.0374592 0.0107042 0
0.0406642 0 0
0.0487544 0 0
0.0501933 0.0110165 0
0.0463141 0.0142583 0
0.0374592 0.0107042 0
0.395705 0.970339 0
0.403746 0.97575 0
0.402872 0.983085 0
0.400083 0.984972 0
0.393347 0.985027 0
0.387239 0.977755 0
0.395705 0.970339 0
0.409386 0.482099 0
0.410809 0.49399 0
0.407759 0.496447 0
0.397242 0.49364 0
0.395343 0.487818 0
0.398436 0.48242 0
0.409386 0.482099 0
0.0469738 0.0212712 0
0.0463141 0.0142583 0
0.0501933 0.0110165 0
0.0591742 0.0127506 0
0.0614095 0.0156405 0
0.0541229 0.0245377 0
0.0469738 0.0212712 0
0.424836 0.469314 0
0.426591 0.473079 0
0.421819 0.48103 0
0.411771 0.47937 0
0.410285 0.470183 0
0.414689 0.466069 0
0.424836 0.469314 0
0.377199 0.987326 0
0.388911 0.993722 0
0.390456 1 0
0.371708 1 0
0.377199 0.987326 0
0.97649 0.402702 0
0.98426 0.394424 0
0.986426 0.394545 0
0.991846 0.399774 0
0.988375 0.409804 0
0.986901 0.410239 0
0.97649 0.402702 0
0.0487544 0 0
0.0624541 0 0
0.0591742 0.0127506 0
0.0501933 0.0110165 0
0.0487544 0 0
0.411771 0.47937 0
0.421819 0.48103 0
0.424023 0.486177 0
0.419463 0.494922 0
0.410809 0.49399 0
0.409386 0.482099 0
0.411771 0.47937 0
0.385428 0.977543 0
0.387239 0.977755 0
0.393347 0.985027 0
0.388911 0.993722 0
0.377199 0.987326 0
0.376597 0.985496 0
0.385428 0.977543 0
0.0352992 0.0233409 0
0.0431726 0.0240809 0
0.0442827 0.0361378 0
0.0370278 0.0391824 0
0.0361759 0.0391132 0
0.0327653 0.0261028 0
0.0352992 0.0233409 0
0.930685 0.408677 0
0.938816 0.399561 0
0.9395 0.399637 0
0.946998 0.410484 0
0.94088 0.416132 0
0.930874 0.410089 0
0.930685 0.408677 0
0.426591 0.473079 0
0.435252 0.474943 0
0.43826 0.483803 0
0.434053 0.488102 0
0.424023 0.486177 0
0.421819 0.48103 0
0.426591 0.473079 0
0.400083 0.984972 0
0.401499 1 0
0.390456 1 0
0.388911 0.993722 0
0.393347 0.985027 0
0.400083 0.984972 0
0.0337854 0.0125854 0
0.0374592 0.0107042 0
0.0463141 0.0142583 0
0.0469738 0.0212712 0
0.0431726 0.0240809 0
0.0352992 0.0233409 0
0.0337854 0.0125854 0
0.946998 0.410484 0
0.950563 0.410305 0
0.954389 0.415472 0
0.952886 0.424065 0
0.950995 0.424907 0
0.941038 0.421274 0
0.94088 0.416132 0
0.946998 0.410484 0
0.402872 0.983085 0
0.412808 0.987818 0
0.408878 1 0
0.401499 1 0
0.400083 0.984972 0
0.402872 0.983085 0
0.0431726 0.0240809 0
0.0469738 0.0212712 0
0.0541229 0.0245377 0
0.0557913 0.0287453 0
0.049282 0.0370503 0
0.0442827 0.0361378 0
0.0431726 0.0240809 0
0.407759 0.496447 0
0.410809 0.49399 0
0.419463 0.494922 0
0.422589 0.499929 0
0.417833 0.508814 0
0.407892 0.507475 0
0.407759 0.496447 0
0.423462 0.973082 0
0.428937 0.974887 0
0.430336 0.984938 0
0.421815 0.988237 0
0.41703 0.98612 0
0.417182 0.977749 0
0.423462 0.973082 0
0.0541229 0.0245377 0
0.0614095 0.0156405 0
0.0639893 0.0162884 0
0.068597 0.0259196 0
0.0683276 0.0270682 0
0.0625069 0.0308505 0
0.0557913 0.0287453 0
0.0541229 0.0245377 0
0.424023 0.486177 0
0.434053 0.488102 0
0.43497 0.497985 0
0.432334 0.500901 0
0.422589 0.499929 0
0.419463 0.494922 0
0.424023 0.486177 0
0.419894 0.963223 0
0.423462 0.973082 0
0.417182 0.977749 0
0.408868 0.972859 0
0.411303 0.962972 0
0.415077 0.962047 0
0.419894 0.963223 0
0.955469 0.402956 0
0.960259 0.401776 0
0.96684 0.410474 0
0.965237 0.413441 0
0.954389 0.415472 0
0.950563 0.410305 0
0.955469 0.402956 0
0.0107427 0.0360501 0
0.0182529 0.0381786 0
0.0198212 0.0479358 0
0.0193745 0.0488364 0
0.0113309 0.050255 0
0.00591873 0.0397974 0
0.0107427 0.0360501 0
0.403746 0.97575 0
0.408868 0.972859 0
0.417182 0.977749 0
0.41703 0.98612 0
0.412808 0.987818 0
0.402872 0.983085 0
0.403746 0.97575 0
0.432794 0.436401 0
0.436377 0.433743 0
0.44753 0.437534 0
0.448169 0.442969 0
0.441213 0.45046 0
0.433273 0.44418 0
0.432794 0.436401 0
0.965237 0.413441 0
0.967356 0.422001 0
0.960152 0.427373 0
0.952886 0.424065 0
0.954389 0.415472 0
0.965237 0.413441 0
0 0.0398823 0
0.00591873 0.0397974 0
0.0113309 0.050255 0
0.00763357 0.054748 0
0 0.0553153 0
0 0.0398823 0
0.433626 0.960325 0
0.435439 0.959612 0
0.447183 0.967659 0
0.442569 0.975097 0
0.431107 0.97347 0
0.433626 0.960325 0
0.441327 0.452053 0
0.441213 0.45046 0
0.448169 0.442969 0
0.457563 0.446754 0
0.458855 0.452421 0
0.452173 0.459197 0
0.441327 0.452053 0
0.0182529 0.0381786 0
0.0222089 0.0345072 0
0.0345606 0.0399922 0
0.0318245 0.0445679 0
0.0198212 0.0479358 0
0.0182529 0.0381786 0
0.936982 0.432437 0
0.937617 0.424759 0
0.941038 0.421274 0
0.950995 0.424907 0
0.947812 0.434354 0
0.942184 0.435878 0
0.936982 0.432437 0
0.419894 0.963223 0
0.42662 0.958394 0
0.433626 0.960325 0
0.431107 0.97347 0
0.428937 0.974887 0
0.423462 0.973082 0
0.419894 0.963223 0
0.464927 0.438218 0
0.468752 0.439258 0
0.473416 0.448081 0
0.467586 0.455383 0
0.458855 0.452421 0
0.457563 0.446754 0
0.464927 0.438218 0
0.0193745 0.0488364 0
0.0198212 0.0479358 0
0.0318245 0.0445679 0
0.0336521 0.0545699 0
0.0287577 0.0580171 0
0.0227373 0.0574558 0
0.0193745 0.0488364 0
0.428937 0.974887 0
0.431107 0.97347 0
0.442569 0.975097 0
0.444254 0.983138 0
0.443396 0.984103 0
0.433831 0.986805 0
0.430336 0.984938 0
0.428937 0.974887 0
0.441242 0.468661 0
0.436092 0.459028 0
0.441327 0.452053 0
0.452173 0.459197 0
0.452348 0.462457 0
0.446956 0.468991 0
0.441242 0.468661 0
0.41703 0.98612 0
0.421815 0.988237 0
0.42424 1 0
0.408878 1 0
0.412808 0.987818 0
0.41703 0.98612 0
0.452348 0.462457 0
0.46363 0.468713 0
0.464101 0.471479 0
0.459288 0.478429 0
0.450965 0.4769 0
0.446956 0.468991 0
0.452348 0.462457 0
0.00763357 0.054748 0
0.0113309 0.050255 0
0.0193745 0.0488364 0
0.0227373 0.0574558 0
0.0191628 0.0620006 0
0.01199 0.0608588 0
0.00763357 0.054748 0
0.970499 0.435048 0
0.964726 0.436789 0
0.962198 0.435644 0
0.960152 0.427373 0
0.967356 0.422001 0
0.974767 0.424573 0
0.970499 0.435048 0
0.430336 0.984938 0
0.433831 0.986805 0
0.434685 1 0
0.42424 1 0
0.421815 0.988237 0
0.430336 0.984938 0
0.452173 0.459197 0
0.458855 0.452421 0
0.467586 0.455383 0
0.469024 0.460244 0
0.46363 0.468713 0
0.452348 0.462457 0
0.452173 0.459197 0
0 0.0553153 0
0.00763357 0.054748 0
0.01199 0.0608588 0
[...]
CELL_DATA 6400
FIELD FieldData 3
weight 1 6400 float
 0.0530666 0.0548347 0.0531713 0.0548118 0.0532488 0.0532553 0.0546768 0.0532877 0.0502564 0.0531103 0.0531654 0.0530658 0.0545907 0.0532506 0.0502965 0.0531242 0.0547093 0.0500504 0.0546584 0.0531986 0.0531834 0.0499201 0.0545764 0.0533122 0.0531541 0.0500897 0.0533546 0.0545532 0.0530244 0.0533871 0.0499437 0.0546402 0.05349 0.0547439 0.0497401 0.053064 0.0534737 0.0546691 0.0498366 0.0534271 0.0533719 0.0547234 0.0497833 0.0533927 0.0532527 0.0498016 0.0534904 0.0545708 0.0499485 0.0535638 0.0546467 0.050066 0.0532238 0.0532632 0.0499393 0.0549632 0.0531683 0.0532127 0.0501404 0.0549234 0.0533531 0.0532244 0.0501414 0.0549562 0.053396 0.0499904 0.0548518 0.0497683 0.0548114 0.053304 0.0530684 0.0497999 0.0548794 0.0532542 0.0531395 0.0503862 0.053418 0.0550015 0.0530745 0.0534677 0.0549166 0.0505058 0.0530925 0.0535084 0.0549629 0.0502624 0.0536539 0.0502226 0.0529547 0.0549904 0.0535754 0.0529592 0.0503341 0.0548446 0.053586 0.0529822 0.0504686 0.0548782 0.0528605 0.0535492 0.054829 0.053483 0.0504642 0.0547252 0.0529424 0.0536413 0.0502974 0.0547655 0.0535431 0.0535283 0.0547612 0.0502939 0.0536121 0.0536468 0.0546357 0.0536784 0.0503445 0.0537382 0.05467 0.05369 0.0502456 0.0546798 0.0535044 0.0536233 0.0500418 0.0548008 0.0537192 0.0534958 0.0501401 0.0547396 0.0500193 0.0538034 0.0546189 0.053857 0.0547039 0.0535505 0.0539176 0.0498223 0.0537948 0.0533881 0.0546515 0.0498559 0.0538596 0.053411 0.0552417 0.0499698 0.0539811 0.0551976 0.0498379 0.0539099 0.055242 0.0500693 0.0537446 0.0533132 0.0552081 0.050131 0.0536562 0.0533998 0.0552742 0.0537855 0.0500784 0.0531951 0.0552811 0.0537463 0.0498344 0.0553068 0.0498572 0.0552049 0.0537009 0.0551907 0.0532795 0.0498668 0.0538702 0.0551625 0.0532845 0.0538188 0.0552233 0.0552601 0.0531853 0.0537914 0.0552827 0.0538628 0.0546055 0.0552312 0.0539484 0.0552436 0.0533828 0.0539317 0.0545744 0.05533 0.0534355 0.0540125 0.0545934 0.0553098 0.0532915 0.053878 0.0553408 0.0544895 0.055368 0.0539416 0.0545118 0.0540026 0.0554005 0.0533328 0.0544157 0.0533203 0.0553958 0.0553566 0.0532752 0.0545496 0.0532526 0.0553326 0.0534485 0.0553126 0.0545558 0.0533757 0.055277 0.0544754 0.0533611 0.0532425 0.055295 0.0532946 0.054452 0.0553478 0.0534573 0.0531832 0.0553763 0.0543531 0.0535512 0.0531566 0.055349 0.0536212 0.0551335 0.0544093 0.0536961 0.0551922 0.0543448 0.055119 0.0531214 0.0535302 0.0551655 0.0542818 0.053724 0.0530613 0.0552502 0.0536338 0.0542425 0.0552142 0.0531164 0.0543063 0.0534204 0.0551928 0.0533088 0.0543817 0.0552304 0.0534699 0.0542903 0.0550944 0.053524 0.0530011 0.0551402 0.0533378 0.0543641 0.0550736 0.0534398 0.0531442 0.0542314 0.0551211 0.053489 0.0552144 0.054181 0.0551645 0.0535696 0.0545046 0.0532268 0.0551496 0.0536089 0.053052 0.055281 0.0535429 0.0545821 0.055268 0.0530551 0.0537041 0.0545011 0.0552427 0.0536499 0.055315 0.0544225 0.0553205 0.0531132 0.0536371 0.0544842 0.0552811 0.0530827 0.0537559 0.0552361 0.0543933 0.0529397 0.0551927 0.053699 0.0529023 0.0545023 0.0537757 0.0552053 0.0552859 0.0544781 0.0537141 0.0552404 0.0529893 0.0543489 0.0538472 0.0529791 0.0554234 0.0538062 0.0544282 0.0528675 0.0554511 0.0537776 0.0527195 0.054301 0.0554099 0.0538779 0.0554379 0.0538435 0.054394 0.0554664 0.0527877 0.0539419 0.0554403 0.0528741 0.0543493 0.0554657 0.0539196 0.052798 0.0543136 0.0554147 0.0540184 0.0526373 0.0542541 0.0553907 0.0541636 0.0540359 0.0553944 0.0554481 0.0542649 0.0539953 0.0527629 0.0554255 0.0541567 0.0539508 0.0529669 0.0542724 0.054068 0.0530274 0.0554805 0.0542609 0.0541343 0.0541977 0.0555059 0.0537803 0.0554889 0.0540994 0.0528376 0.0538692 0.0554825 0.0541658 0.0539204 0.0529048 0.0541994 0.0555225 0.0538331 0.0529054 0.0555095 0.0541164 0.0539179 0.0554639 0.0541629 0.0539623 0.0554559 0.0527429 0.0554531 0.0539991 0.053994 0.0555 0.0528668 0.0540357 0.0554715 0.0540962 0.0526858 0.0541235 0.0555055 0.0540379 0.0554732 0.0540791 0.0541616 0.0553587 0.0527876 0.0540487 0.0541201 0.055335 0.0526724 0.0540472 0.0541295 0.0553703 0.0525531 0.0540864 0.0554022 0.0541627 0.0540154 0.0554343 0.0539922 0.055371 0.0539682 0.0526885 0.0539881 0.0553998 0.0527277 0.0541027 0.0538785 0.0553376 0.0540439 0.0538973 0.0525755 0.0552845 0.0540425 0.0524686 0.0553242 0.0537462 0.0540579 0.0553871 0.0541059 0.0538345 0.0553556 0.0525865 0.0541576 0.0553296 0.0537245 0.0543042 0.0523755 0.0554328 0.0539602 0.0542293 0.0554433 0.0525385 0.0539102 0.0542832 0.0554134 0.0541709 0.055427 0.0537412 0.0542322 0.0538262 0.0543019 0.0554722 0.0525229 0.053823 0.0543522 0.0554545 0.0537399 0.0523124 0.0541759 0.0553927 0.0540771 0.054112 0.0553604 0.0540529 0.0540949 0.055334 0.0539571 0.0524312 0.0553667 0.054074 0.0539494 0.0524257 0.0554356 0.054156 0.0541057 0.0553984 0.0542336 0.0527122 0.0540633 0.0541762 0.0553822 0.0540523 0.0550334 0.0543108 0.0539755 0.0525841 0.0550948 0.0542348 0.0538801 0.0550741 0.0542493 0.0528253 0.0549914 0.0539113 0.0543908 0.0550286 0.0527463 0.0539138 0.0542873 0.0551381 0.0538705 0.0551078 0.0538579 0.0544316 0.0550895 0.0524869 0.0549798 0.0543684 0.0536916 0.0549491 0.0526089 0.0548945 0.0543624 0.055048 0.0537945 0.0549543 0.054361 0.0537159 0.0549924 0.0526567 0.0544789 0.0544278 0.055018 0.0537818 0.0523073 0.0544313 0.0522104 0.0538221 0.055171 0.0544312 0.0551309 0.0536298 0.0545186 0.0551432 0.0537546 0.0523392 0.0544795 0.0551808 0.0545392 0.0520778 0.0552235 0.0536724 0.0545982 0.0522027 0.0551802 0.053667 0.0545403 0.0523026 0.0550771 0.0545421 0.0550402 0.0544816 0.0550403 0.0546862 0.0521885 0.0550894 0.054425 0.0546152 0.0551313 0.0525103 0.0543424 0.0546289 0.0550752 0.0544978 0.0526483 0.0548725 0.0543766 0.0548606 0.0544172 0.0547952 0.054324 0.0544902 0.0547706 0.0525086 0.0545684 0.0542407 0.0549412 0.0525468 0.0549246 0.0545051 0.0543552 0.0523907 0.0548423 0.0545692 0.0548655 0.0542626 0.0546317 0.0547232 0.0522825 0.0546112 0.0542678 0.0547463 0.052386 0.054618 0.0541731 0.0546614 0.0542626 0.0524503 0.0546958 0.0546157 0.0541696 0.0548048 0.0546992 0.0546959 0.0541968 0.0546906 0.0529113 0.0547643 0.0542344 0.0547499 0.0529293 0.0547043 0.0541501 0.0541255 0.0549658 0.0540352 0.0530001 0.0541403 0.0541309 0.0549907 0.0543036 0.0549191 0.054045 0.0542257 0.0548918 0.0540889 0.0527474 0.0540781 0.0542067 0.0549812 0.0527913 0.0540608 0.0542208 0.0550144 0.0528733 0.053987 0.054309 0.0549326 0.0543081 0.0549325 0.0539937 0.054365 0.0548476 0.0539634 0.053098 0.0544503 0.0547996 0.0541872 0.0544396 0.0548697 0.0531538 0.0545159 0.0541622 0.0548887 0.0543822 0.0548182 0.0541566 0.0544624 0.0552409 0.0532803 0.0540701 0.0543821 0.0545253 0.0552785 0.0540604 0.0532475 0.0542752 0.0551956 0.0541082 0.0552833 0.0542015 0.0552433 0.0543533 0.0529907 0.055274 0.0541017 0.0551374 0.0529339 0.0542471 0.0551901 0.0539879 0.0531232 0.0543756 0.0551146 0.0542997 0.0552307 0.0539683 0.0552117 0.0544622 0.0530978 0.0539753 0.0544309 0.0551651 0.0526687 0.0545308 0.0551476 0.0538646 0.052768 0.0553208 0.0544453 0.0540543 0.0528339 0.0553057 0.0539341 0.0545643 0.0539536 0.0553427 0.0545174 0.0538517 0.0545038 0.0553281 0.052651 0.0539544 0.05526 0.0545803 0.0525877 0.0552395 0.0538147 0.0546332 0.0527562 0.0551831 0.0545674 0.0538736 0.0552054 0.0545862 0.0552816 0.0528697 0.0537685 0.0546379 0.0552638 0.0538424 0.0529741 0.0546444 0.0552263 0.0546924 0.0536675 0.0529713 0.0550192 0.0546978 0.0537786 0.0550516 0.0547511 0.0550858 0.0539805 0.0527081 0.0549612 0.0548068 0.053932 0.0528398 0.0551228 0.0547555 0.053931 0.0528849 0.0550639 0.0546996 0.0550036 0.0538398 0.0520897 0.0547485 0.0519661 0.0550215 0.0548036 0.0522 0.0538338 0.0520821 0.0549157 0.0538704 0.0548491 0.0548481 0.0518588 0.0538684 0.054952 0.0546005 0.0519754 0.0537592 0.0548786 0.0546459 0.0519893 0.0538317 0.0549213 0.0546746 0.0537769 0.0523013 0.055151 0.0547185 0.0537536 0.0551087 0.0547622 0.0550478 0.0537241 0.055079 0.0547001 0.0521632 0.0547962 0.0551407 0.0523984 0.0547361 0.0551712 0.0521618 0.0548424 0.0550842 0.0549821 0.0548552 0.0520603 0.054951 0.054832 0.0522668 0.0548825 0.0547852 0.0522841 0.0550582 0.0548967 0.051741 0.0537131 0.0550096 0.0517392 0.0533893 0.0518796 0.0534467 0.054963 0.0535397 0.0518299 0.053368 0.0516095 0.0555385 0.0536395 0.0535384 0.0517448 0.0536021 0.0555483 0.0535301 0.0535565 0.0516768 0.0555303 0.0533716 0.0536806 0.0519665 0.0534588 0.0536261 0.055561 0.0521537 0.0535278 0.0535698 0.0555493 0.0521651 0.0536155 0.0555354 0.0520132 0.0534933 0.0555496 0.0537812 0.0534298 0.0518473 0.0555207 0.0537149 0.0537796 0.055526 0.0518737 0.0537746 0.0537349 0.0519856 0.0536927 0.0555022 0.0536909 0.0555433 0.0536406 0.0525216 0.0536598 0.0555306 0.0536164 0.0524249 0.0535957 0.0555675 0.0538288 0.0525181 0.0555572 0.0536956 0.0537345 0.0526067 0.0537091 0.0534653 0.0555832 0.0523271 0.0533797 0.0535735 0.0555746 0.0524368 0.0535693 0.0555676 0.0535837 0.0526102 0.0535162 0.055546 0.0534609 0.0527262 0.0555503 0.0534923 0.0534114 0.055541 0.0527956 0.0534487 0.0555642 0.0535611 0.0535781 0.0525471 0.0555542 0.0536216 0.0555521 0.0534229 0.052643 0.0536742 0.0535434 0.0555327 0.0526799 0.0538324 0.0534658 0.0554798 0.0521498 0.0537524 0.0533306 0.0554962 0.052322 0.0537088 0.0534714 0.0524093 0.0554604 0.0537762 0.0533772 0.0523005 0.0555087 0.0554863 0.0521708 0.0538492 0.0533383 0.0554921 0.0539937 0.052033 0.0532803 0.0554196 0.0539272 0.0554378 0.052057 0.0533334 0.0538395 0.052218 0.0532271 0.0553979 0.0538989 0.0554739 0.0539407 0.0531982 0.0525079 0.055453 0.0540078 0.0524289 0.0554178 0.0536477 0.0540755 0.052556 0.0554285 0.0541692 0.0522904 0.0555219 0.0536401 0.0555001 0.0555059 0.0542177 0.052399 0.0535778 0.055509 0.0540482 0.0524361 0.0554715 0.0535208 0.0541235 0.0554726 0.0532343 0.0534603 0.0541954 0.0554435 0.0539184 0.0535448 0.0554781 0.0533567 0.0539797 0.0554933 0.0536247 0.0540418 0.0534241 0.0539483 0.0536184 0.0554424 0.0533726 0.0538809 0.0535031 0.055589 0.0532867 0.0538546 0.0555776 0.0534258 0.0531621 0.0540231 0.0555779 0.0534966 0.0541134 0.05322 0.0555831 0.0534184 0.0535313 0.0541928 0.0533121 0.0555921 0.0542665 0.053417 0.0555861 0.0535022 0.0542653 0.0555793 0.0533333 0.0555632 0.0536466 0.0541847 0.0531693 0.054108 0.0533821 0.0540951 0.0555584 0.0532828 0.0542036 0.0534006 0.0555411 0.0533528 0.0542657 0.0555709 0.0535604 0.0532908 0.0534859 0.0555639 0.0535115 0.0532572 0.0533891 0.053338 0.0555777 0.0530775 0.0535203 0.0555778 0.0531679 0.0531073 0.0536003 0.0555702 0.0532574 0.0533802 0.0531574 0.0555656 0.0534618 0.0529648 0.0555742 0.0536396 0.0535498 0.0555615 0.0530309 0.0535822 0.0555609 0.0537092 0.0531691 0.0535564 0.0532996 0.0536362 0.0555476 0.0534885 0.0537773 0.0534199 0.0555383 0.0534309 0.0531038 0.0538115 0.0555453 0.0535309 0.0537226 0.0532341 0.0555205 0.0536924 0.0535037 0.0555018 0.0533171 0.0536247 0.0555369 0.0535621 0.0536642 0.0538497 0.05555 0.0533823 0.0555279 0.0537977 0.0555176 0.053764 0.0534371 0.053368 0.0554865 0.0534591 0.0533255 0.0538019 0.0554473 0.0535907 0.0533547 0.0535594 0.0554513 0.0535064 0.0533802 0.0555014 0.0532904 0.0536623 0.0534302 0.055475 0.0531652 0.0536921 0.0533637 0.0554694 0.0532543 0.0555438 0.0535319 0.053782 0.0531578 0.0555062 0.0536881 0.0533246 0.0555266 0.053612 0.0538955 0.0532414 0.0555305 0.0537722 0.0531543 0.0555309 0.0538885 0.0537103 0.05318 0.0555087 0.0537751 0.0536615 0.0555049 0.0531256 0.055491 0.0537882 0.0538093 0.0530255 0.0554372 0.0534275 0.0554626 0.0537524 0.0531274 0.0535606 0.0538956 0.0530809 0.053543 0.0554912 0.0539586 0.0534266 0.0528736 0.055479 0.0540572 0.053427 0.0529493 0.0540279 0.0554416 0.0539658 0.0530515 0.0536719 0.0554285 0.0539164 0.0530718 0.0537165 0.0540061 0.0553696 0.0529272 0.0536563 0.0541439 0.0528945 0.0553659 0.0535365 0.0542325 0.052948 0.0553119 0.0535455 0.0541681 0.055299 0.0540942 0.0527651 0.0536022 0.0553849 0.0528212 0.0542644 0.0528953 0.0553396 0.0527336 0.0542427 0.0553553 0.0529675 0.0538655 0.0553133 0.0526747 0.0527837 0.0538701 0.0552732 0.0528376 0.053939 0.0526181 0.055241 0.0528323 0.0540095 0.0529673 0.0527 0.0552023 0.0539202 0.053119 0.0552716 0.0552303 0.0539969 0.0531691 0.055394 0.0539287 0.0531299 0.0553634 0.0540928 0.0553352 0.0529988 0.0541789 0.0553839 0.0529875 0.0542213 0.0525441 0.0554105 0.0540667 0.0526601 0.0554168 0.0540852 0.0526567 0.055345 0.0541432 0.0552801 0.0526809 0.0552664 0.0525205 0.0541744 0.0552257 0.0525423 0.0543139 0.0553022 0.0528644 0.055319 0.0543285 0.0528469 0.0552606 0.0544079 0.052937 0.0551666 0.0543372 0.0527075 0.0542591 0.055111 0.0527753 0.0543796 0.0551812 0.0551993 0.0544342 0.0551463 0.0528072 0.0544741 0.0550989 0.0551285 0.0545478 0.0528357 0.055054 0.0527884 0.0545894 0.0550093 0.0527213 0.0545075 0.0527129 0.0549444 0.0545559 0.0550003 0.0526301 0.0550283 0.0546079 0.0550764 0.0526095 0.0549769 0.0543408 0.0525842 0.0551635 0.0544547 0.0530219 0.0551783 0.0544081 0.0530614 0.0551059 0.0543368 0.0530501 0.0552315 0.0529481 0.0543635 0.0552049 0.0529111 0.0543926 0.0551478 0.0528066 0.0544259 0.0551245 0.0529356 0.0545296 0.0530436 0.0550318 0.0544811 0.0530185 0.0550599 0.0546001 0.0528833 0.0544895 0.0550096 0.0527696 0.054564 0.0550372 0.0528719 0.0527648 0.0546444 0.0549892 0.0527009 0.0553892 0.0526424 0.0546384 0.052529 0.0554165 0.0546617 0.0553494 0.0525911 0.0547299 0.0527467 0.0547045 0.0553806 0.0526296 0.0546396 0.05542 0.0526238 0.0547815 0.0553906 0.0526348 0.0553625 0.0548031 0.0524724 0.0552975 0.0548582 0.052518 0.0553272 0.0552856 0.0548854 0.0535258 0.0553185 0.0534674 0.0552477 0.0549298 0.0534083 0.0552715 0.0548306 0.0533925 0.0554096 0.0549011 0.0532863 0.0553581 0.0547397 0.0532642 0.0553869 0.0546719 0.0534311 0.0547583 0.055401 0.0533179 0.0548122 0.0532897 0.0553249 0.0547014 0.0532109 0.0533377 0.0547694 0.0553521 0.0532016 0.0553301 0.0549113 0.0553058 0.0532149 0.0548786 0.0552866 0.0531152 0.0549399 0.0531672 0.0552324 0.0548487 0.0530553 0.05528 0.0530275 0.0549627 0.0552453 0.052995 0.0531327 0.0549106 0.0552284 0.0530798 0.055175 0.0530534 0.0543117 0.0551884 0.0529802 0.0543909 0.0551283 0.0528991 0.0543209 0.0550897 0.0532311 0.0544014 0.0551205 0.0533608 0.0545348 0.0550535 0.0531865 0.0530983 0.0550749 0.0544635 0.0531198 0.0550201 0.0546145 0.0530594 0.0545847 0.0531528 0.0550006 0.0544686 0.0552081 0.053076 0.0545269 0.055174 0.0530731 0.0545938 0.0551502 0.053008 0.0551216 0.0543025 0.0529429 0.0551921 0.0529862 0.0543451 0.0529454 0.0551356 0.0544083 0.0528086 0.0550774 0.0543259 0.0529265 0.0550636 0.05272 0.054255 0.0528509 0.0550163 0.0529185 0.0543501 0.0550922 0.0528553 0.0544159 0.0528157 0.0545527 0.0549878 0.0527247 0.0544826 0.0528237 0.0550358 0.0546378 0.0527362 0.0545588 0.0545622 0.0526237 0.0545088 0.0546225 0.0528879 0.0546339 0.0528674 0.0545019 0.0546481 0.0529191 0.0544968 0.0545633 0.0527344 0.054556 0.0527421 0.0545677 0.0527565 0.0544054 0.052842 0.0546592 0.0544772 0.0544655 0.052775 0.0547036 0.0544104 0.0527369 0.0547871 0.0543332 0.0526918 0.0547455 0.0526129 0.0545019 0.0526196 0.0546658 0.0543565 0.052521 0.0548189 0.0544309 0.0526056 0.0547558 0.0546597 0.0524458 0.0548903 0.0547304 0.0524909 0.0548567 0.0546831 0.0523649 0.0549525 0.0545998 0.0525533 0.0548314 0.0524423 0.0546078 0.0524898 0.0549675 0.0525766 0.0547899 0.0548952 0.0524527 0.0547584 0.0546889 0.0523656 0.0547353 0.0547782 0.0522976 0.0547604 0.0546768 0.0526649 0.0545299 0.0546911 0.0527088 0.0544575 0.0525368 0.0546289 0.0545477 0.052579 0.0546197 0.0547397 0.0525915 0.0545698 0.0548382 0.05263 0.0545031 0.0524932 0.0549156 0.0542748 0.0524747 0.05488 0.0542933 0.0524773 0.0542064 0.0548064 0.0523393 0.0541457 0.0523907 0.0543011 0.0524548 0.0548508 0.054367 0.0523199 0.0542308 0.0549233 0.0542261 0.0523507 0.05417 0.0522542 0.0546706 0.0540828 0.0546528 0.0540226 0.0521544 0.054718 0.0539633 0.0523366 0.0547134 0.0541051 0.0522176 0.0547591 0.0540324 0.0522108 0.0547553 0.054045 0.0520684 0.0547931 0.0539891 0.0521857 0.0547868 0.0543938 0.0547954 0.0520787 0.0542653 0.0548377 0.0548473 0.0543006 0.0539773 0.0548941 0.0543659 0.0548609 0.0538748 0.0544478 0.05487 0.0543754 0.0538652 0.0549341 0.0542884 0.0538674 0.0547532 0.0541497 0.053761 0.0548126 0.054209 0.054822 0.0537671 0.0541668 0.0548723 0.053792 0.0540647 0.0547837 0.0536891 0.0540954 0.0536844 0.0542286 0.0548069 0.0535957 0.054145 0.0549048 0.0537586 0.0548404 0.0536656 0.0547493 0.0549133 0.0536672 0.0548137 0.054905 0.0535625 0.0546934 0.0535549 0.0549649 0.0548308 0.054931 0.0536516 0.0535064 0.0547649 0.0549648 0.0535957 0.0547667 0.0550523 0.0534784 0.0547052 0.0549854 0.0534294 0.0548963 0.0546392 0.0534669 0.0549291 0.0545336 0.0533672 0.054952 0.0545169 0.054979 0.053601 0.0545932 0.0549807 0.0535967 0.0547066 0.0550831 0.0535028 0.0546519 0.0535212 0.0550286 0.0546516 0.0534294 0.055029 0.0545936 0.0550073 0.0534638 0.0550489 0.0548292 0.0534095 0.0550386 0.0533844 0.055059 0.0548959 0.0533322 0.0551022 0.0548232 0.0533483 0.0550944 0.0547602 0.0532877 0.0549995 0.0532288 0.0550563 0.0548977 0.0531726 0.055024 0.0548391 0.0534148 0.0550415 0.0532995 0.0547692 0.0550889 0.0533342 0.0547028 0.0551065 0.0532915 0.0545973 0.0551516 0.053184 0.0546476 0.0551085 0.0532341 0.054706 0.0551145 0.0531908 0.0531385 0.0551445 0.0546451 0.0530823 0.0551858 0.0531134 0.054445 0.0544643 0.0551417 0.0529346 0.0543674 0.0529961 0.0551505 0.0545409 0.053468 0.0552042 0.0544818 0.0535618 0.055204 0.0543956 0.0533702 0.0544212 0.0548808 0.0533388 0.0542894 0.0548608 0.0534586 0.0542073 0.0549427 0.0533562 0.054126 0.0549083 0.053282 0.0542529 0.0549248 0.0543335 0.0533477 0.0549648 0.0542235 0.0532198 0.0550198 0.054176 0.0532734 0.0550322 0.0532442 0.0545361 0.0530868 0.0550835 0.054585 0.0531044 0.0550307 0.0544812 0.0532355 0.0549937 0.0544204 0.053202 0.05507 0.0551265 0.0545891 0.0531242 0.0545255 0.0549314 0.0530346 0.0544722 0.0549913 0.0531195 0.0543 0.0530785 0.0543594 0.0531625 0.054907 0.0530293 0.0541904 0.0549722 0.0529798 0.0550337 0.0544096 0.0529497 0.055051 0.0543582 0.0528904 0.0551555 0.0543317 0.0531331 0.0551173 0.053188 0.0550908 0.0542458 0.0530673 0.0542785 0.0529929 0.0550743 0.0530134 0.0539193 0.055096 0.0529973 0.0538488 0.0528819 0.0551551 0.0537771 0.0529293 0.05511 0.0539238 0.0527359 0.0528214 0.0551592 0.0538577 0.0529377 0.0551465 0.0538438 0.0528901 0.0551933 0.0539165 0.0527978 0.055247 0.0537228 0.0528298 0.0536535 0.0551973 0.0526977 0.0535872 0.0552443 0.0528191 0.0537571 0.0526869 0.0537789 0.0552501 0.052689 0.0536175 0.0552756 0.0536926 0.052621 0.0552129 0.0536871 0.0527466 0.0552851 0.052571 0.0539756 0.0551744 0.0552344 0.0539784 0.053196 0.0551841 0.0539024 0.0530882 0.0552111 0.0540548 0.0530464 0.0552245 0.0540562 0.0531062 0.0552531 0.0539581 0.0552846 0.0530033 0.0538789 0.0553205 0.0529749 0.0538363 0.0553259 0.0529625 0.0537881 0.0528237 0.0536644 0.0553329 0.0537232 0.0529475 0.0553087 0.0538512 0.0528373 0.0553439 0.0529414 0.0537365 0.0527382 0.0553588 0.0537798 0.0534326 0.0550643 0.0530335 0.0535154 0.0551006 0.0529689 0.0533466 0.0551429 0.0528761 0.0533533 0.0551828 0.0528996 0.0535118 0.0527927 0.0551591 0.0535938 0.0528738 0.0551262 0.0534948 0.0528027 0.0551914 0.0534358 0.0527453 0.0551884 0.0533865 0.0551277 0.0526644 0.0532703 0.055172 0.0527236 0.0532275 0.0552033 0.0526552 0.0531185 0.0551524 0.0526138 0.0530915 0.0552174 0.0525354 0.0532915 0.0552374 0.0532675 0.0526583 0.0552115 0.0531294 0.0552316 0.0527891 0.0532152 0.0552582 0.0525972 0.0552312 0.053651 0.052648 0.0552567 0.053572 0.0527247 0.0534986 0.0525793 0.0552366 0.0534993 0.052479 0.0552978 0.0524577 0.0535872 0.055262 0.0523616 0.0535882 0.0552648 0.0524783 0.052456 0.0535177 0.0552982 0.0523474 0.0533137 0.0552976 0.0522406 0.0533971 0.0525579 0.0553406 0.0532075 0.0551848 0.0524292 0.0531893 0.0551847 0.0524853 0.0532466 0.0551908 0.0534364 0.0524984 0.0552698 0.0533908 0.0552314 0.0523685 0.0532186 0.0552717 0.0523119 0.0552297 0.052327 0.0533009 0.0523852 0.0552681 0.0522656 0.0540942 0.0552037 0.052