# vtk DataFile Version 3.0
vtk output
ASCII
DATASET UNSTRUCTURED_GRID
POINTS 24117 float
0.134088 0 0
1 0 0
1 0.745675 0
0.134088 0 0
0 0 0
0.0467256 0 0
0.572798 0.829694 0
0.676436 1 0
0 1 0
0 0 0
0.0589316 0 0
1 0 0
1 0.878272 0
0.0589316 0 0
0.229955 0 0
1 0 0
1 0.662001 0
0.229955 0 0
0 0 0
0.214749 0 0
0.937373 1 0
0 1 0
0 0 0
0 0 0
0.132994 0 0
0.519002 0.740421 0
0.648721 1 0
0 1 0
0 0 0
0 0 0
1 0 0
1 0.249973 0
0.710112 0.373489 0
0 0.661623 0
0 0 0
0 0.362025 0
0.241899 0.641893 0
0.542369 1 0
0 1 0
0 0.362025 0
0 0 0
1 0 0
1 0.32233 0
0.173297 0.639092 0
0 0.70238 0
0 0 0
0 0 0
0.69253 0 0
0.382375 0.83093 0
0.315427 1 0
0 1 0
0 0 0
0 0 0
1 0 0
1 0.22791 0
0 0.722036 0
0 0 0
0 0.461797 0
0.0882695 0.573386 0
0.408363 1 0
0 1 0
0 0.461797 0
0 0.703777 0
0.1559 1 0
0 1 0
0 0.703777 0
0 0.360082 0
0.378389 0.722589 0
0.653111 1 0
0 1 0
0 0.360082 0
0.312119 0 0
1 0 0
1 0.410565 0
0.98828 0.403985 0
0.312119 0 0
0 0 0
0.733482 0 0
0.279189 1 0
0 1 0
0 0 0
0.719182 0 0
1 0 0
1 0.117146 0
0.719182 0 0
0 0 0
0.0973159 0 0
0.638705 1 0
0 1 0
0 0 0
0.542818 0 0
1 0 0
1 0.278102 0
0.542818 0 0
0 0 0
0.731214 0 0
0.254242 1 0
0 1 0
0 0 0
0 0 0
0.249361 0 0
0.353519 0.125312 0
1 0.931028 0
1 1 0
0 1 0
0 0 0
0.686035 0 0
1 0 0
1 0.276095 0
0.686035 0 0
0 0 0
0.0137366 0 0
0.02391 0.0192092 0
0.508366 0.975344 0
0.520289 1 0
0 1 0
0 0 0
0 0 0
0.116262 0 0
0.544814 0.717082 0
0.707424 1 0
0 1 0
0 0 0
0.694035 0 0
1 0 0
1 0.104667 0
0.694035 0 0
0 0 0
0.0240812 0 0
0.582954 0.811073 0
0.707961 1 0
0 1 0
0 0 0
0.786636 0 0
1 0 0
1 0.168896 0
0.786636 0 0
0.517778 0 0
1 0 0
1 0.354038 0
0.792055 0.205851 0
0.517778 0 0
0.665866 0 0
1 0 0
1 0.305047 0
0.665866 0 0
0.456371 0 0
1 0 0
1 0.259913 0
0.732283 0.140104 0
0.456371 0 0
0.155782 0 0
1 0 0
1 0.819525 0
0.155782 0 0
0.337866 0 0
1 0 0
1 0.405599 0
0.993524 0.401872 0
0.337866 0 0
0.215554 0 0
1 0 0
1 0.735097 0
0.215554 0 0
0 0 0
1 0 0
1 1 0
0 1 0
0 0 0
0.338964 0 0
1 0 0
1 0.426767 0
0.972799 0.41022 0
0.338964 0 0
0 0 0
1 0 0
1 1 0
0 1 0
0 0 0
0 0 0
1 0 0
1 1 0
0 1 0
0 0 0
0 0 0
1 0 0
1 1 0
0 1 0
0 0 0
0 0 0
1 0 0
1 0.328292 0
0.144563 0.623284 0
0 0.670656 0
0 0 0
0 0 0
1 0 0
1 1 0
0 1 0
0 0 0
0 0 0
1 0 0
1 1 0
0 1 0
0 0 0
0 0 0
1 0 0
1 1 0
0 1 0
0 0 0
0 0 0
1 0 0
1 1 0
0 1 0
0 0 0
0 0 0
1 0 0
1 0.60413 0
0.484871 0.336084 0
0 0.0743612 0
0 0 0
0 0 0
1 0 0
1 1 0
0 1 0
0 0 0
0 0 0
1 0 0
1 1 0
0 1 0
0 0 0
0 0 0
1 0 0
1 1 0
0 1 0
0 0 0
0 0.94827 0
0.0175868 1 0
0 1 0
0 0.94827 0
0 0 0
1 0 0
1 1 0
0 1 0
0 0 0
0 0 0
1 0 0
1 0.32711 0
0.0867367 0.749878 0
0 0.788482 0
0 0 0
0 0 0
1 0 0
1 1 0
0 1 0
0 0 0
0.30796 0 0
1 0 0
1 0.468589 0
0.933555 0.426027 0
0.309955 0.00142854 0
0.30796 0 0
0 0 0
1 0 0
1 1 0
0 1 0
0 0 0
0 0 0
1 0 0
1 1 0
0 1 0
0 0 0
0 0.733122 0
0.130874 1 0
0 1 0
0 0.733122 0
0 0 0
1 0 0
1 1 0
0 1 0
0 0 0
0 0 0
1 0 0
1 1 0
0 1 0
0 0 0
0.450422 0 0
1 0 0
1 0.277312 0
0.723025 0.146082 0
0.450422 0 0
0 0 0
1 0 0
1 1 0
0 1 0
0 0 0
0 0 0
1 0 0
1 1 0
0 1 0
0 0 0
0 0 0
1 0 0
1 1 0
0 1 0
0 0 0
0.413837 0 0
1 0 0
1 0.389651 0
0.566204 0.104914 0
0.413837 0 0
0 0 0
1 0 0
1 1 0
0 1 0
0 0 0
0 0 0
1 0 0
1 1 0
0 1 0
0 0 0
0.156186 0 0
1 0 0
1 0.885161 0
0.156186 0 0
0 0.70958 0
0.152628 1 0
0 1 0
0 0.70958 0
0 0.646993 0
0.195324 1 0
0 1 0
0 0.646993 0
0 0 0
1 0 0
1 1 0
0 1 0
0 0 0
0 0 0
1 0 0
1 1 0
0 1 0
0 0 0
0 0 0
1 0 0
1 1 0
0 1 0
0 0 0
0 0 0
1 0 0
1 1 0
0 1 0
0 0 0
0.105799 0 0
1 0 0
1 0.447407 0
0.640517 0.607923 0
0.105799 0 0
0 0 0
1 0 0
1 1 0
0 1 0
0 0 0
0 0 0
1 0 0
1 1 0
0 1 0
0 0 0
0 0 0
1 0 0
1 1 0
0 1 0
0 0 0
0.289226 0 0
1 0 0
1 0.573392 0
0.819898 0.436221 0
0.289226 0 0
0 0 0
1 0 0
1 1 0
0 1 0
0 0 0
0 0 0
1 0 0
1 1 0
0 1 0
0 0 0
0 0 0
1 0 0
1 1 0
0 1 0
0 0 0
0 0 0
1 0 0
1 1 0
0 1 0
0 0 0
0 0 0
1 0 0
1 1 0
0 1 0
0 0 0
0 0 0
1 0 0
1 1 0
0 1 0
0 0 0
0 0 0
1 0 0
1 1 0
0 1 0
0 0 0
0 0 0
1 0 0
1 1 0
0 1 0
0 0 0
0 0 0
1 0 0
1 1 0
0 1 0
0 0 0
0 0 0
1 0 0
1 1 0
0 1 0
0 0 0
0 0 0
1 0 0
1 0.892971 0
0 0.311932 0
0 0 0
0 0 0
1 0 0
1 1 0
0 1 0
0 0 0
0 0 0
1 0 0
1 1 0
0 1 0
0 0 0
0 0 0
1 0 0
1 1 0
0 1 0
0 0 0
0 0 0
1 0 0
1 1 0
0 1 0
0 0 0
0 0.742026 0
0.125199 1 0
0 1 0
0 0.742026 0
0 0 0
1 0 0
1 0.785161 0
0 0.304391 0
0 0 0
0 0 0
1 0 0
1 1 0
0 1 0
0 0 0
0 0 0
1 0 0
1 1 0
0 1 0
0 0 0
0 0 0
1 0 0
1 1 0
0 1 0
0 0 0
0 0 0
1 0 0
1 1 0
0 1 0
0 0 0
0 0.857921 0
0.0650586 0.927934 0
0.12608 1 0
0 1 0
0 0.857921 0
0 0 0
1 0 0
1 1 0
0 1 0
0 0 0
0 0 0
1 0 0
1 1 0
0 1 0
0 0 0
0 0 0
1 0 0
1 1 0
0 1 0
0 0 0
0 0 0
1 0 0
1 0.654762 0
0.376287 0.44292 0
0 0.309339 0
0 0 0
0 0 0
1 0 0
1 1 0
0 1 0
0 0 0
0 0 0
1 0 0
1 1 0
0 1 0
0 0 0
0 0.97266 0
0.02024 1 0
0 1 0
0 0.97266 0
0 0 0
1 0 0
1 1 0
0 1 0
0 0 0
0 0 0
1 0 0
1 1 0
0 1 0
0 0 0
0 0 0
1 0 0
1 0.805477 0
0 0.296927 0
0 0 0
0 0 0
1 0 0
1 1 0
0 1 0
0 0 0
0 0.904998 0
0.0328674 1 0
0 1 0
0 0.904998 0
0 0 0
1 0 0
1 1 0
0 1 0
0 0 0
0 0 0
1 0 0
1 1 0
0 1 0
0 0 0
0 0 0
1 0 0
1 1 0
0 1 0
0 0 0
0 0.908878 0
0.0343699 1 0
0 1 0
0 0.908878 0
0 0 0
1 0 0
1 1 0
0 1 0
0 0 0
0 0 0
1 0 0
1 1 0
0 1 0
0 0 0
0 0 0
1 0 0
1 1 0
0 1 0
0 0 0
0 0 0
1 0 0
1 1 0
0 1 0
0 0 0
0 0.62357 0
0.242001 1 0
0 1 0
0 0.62357 0
0 0 0
1 0 0
1 1 0
0 1 0
0 0 0
0 0 0
1 0 0
1 1 0
0 1 0
0 0 0
0 0 0
1 0 0
1 0.425512 0
0.540395 0.711635 0
0.374335 0.633392 0
0 0.446931 0
0 0 0
0 0 0
1 0 0
1 1 0
0 1 0
0 0 0
0 0 0
1 0 0
1 1 0
0 1 0
0 0 0
0 0 0
1 0 0
1 1 0
0 1 0
0 0 0
0 0 0
1 0 0
1 1 0
0 1 0
0 0 0
0 0 0
1 0 0
1 1 0
0 1 0
0 0 0
0 0.24452 0
0.912997 1 0
0 1 0
0 0.24452 0
0 0 0
1 0 0
1 1 0
0 1 0
0 0 0
0 0 0
0.8546 0 0
0.348046 1 0
0 1 0
0 0 0
0 0 0
1 0 0
1 1 0
0 1 0
0 0 0
0 0 0
1 0 0
1 1 0
0 1 0
0 0 0
0 0 0
1 0 0
1 1 0
0 1 0
0 0 0
0 0 0
1 0 0
1 1 0
0 1 0
0 0 0
0 0 0
1 0 0
1 0.526692 0
0.595798 0.721045 0
0.145994 0.41531 0
0 0.314179 0
0 0 0
0 0.505988 0
0.165777 0.715374 0
0.373055 1 0
0 1 0
0 0.505988 0
0 0 0
1 0 0
1 1 0
0 1 0
0 0 0
0 0 0
1 0 0
1 1 0
0 1 0
0 0 0
0 0 0
1 0 0
1 1 0
0 1 0
0 0 0
0 0.395718 0
0.540837 1 0
0 1 0
0 0.395718 0
0 0 0
1 0 0
1 1 0
0 1 0
0 0 0
0 0 0
1 0 0
1 0.867091 0
0 0.310115 0
0 0 0
0 0 0
1 0 0
1 1 0
0 1 0
0 0 0
0 0 0
1 0 0
1 1 0
0 1 0
0 0 0
0 0.242326 0
0.95044 1 0
0 1 0
0 0.242326 0
0 0 0
1 0 0
1 1 0
0 1 0
0 0 0
0 0 0
1 0 0
1 1 0
0 1 0
0 0 0
0 0 0
1 0 0
1 0.777697 0
0 0.221397 0
0 0 0
0 0 0
1 0 0
1 1 0
0 1 0
0 0 0
0 0.00245243 0
0.00976451 0.0191501 0
0.528224 0.94274 0
0.558949 1 0
0 1 0
0 0.00245243 0
0 0 0
1 0 0
1 1 0
0 1 0
0 0 0
0 0 0
1 0 0
1 1 0
0 1 0
0 0 0
0 0 0
1 0 0
1 1 0
0 1 0
0 0 0
0 0 0
0.785074 0 0
0.333026 1 0
0 1 0
0 0 0
0 0 0
1 0 0
1 0.631241 0
0.128318 0.26724 0
0 0.208754 0
0 0 0
0 0 0
1 0 0
1 1 0
0 1 0
0 0 0
0 0 0
1 0 0
1 1 0
0 1 0
0 0 0
0 0 0
0.00636412 0 0
0.593377 0.791963 0
0.741529 1 0
0 1 0
0 0 0
0 0 0
1 0 0
1 1 0
0 1 0
0 0 0
0 0 0
1 0 0
1 0.711217 0
0.354174 0.420401 0
0 0.253129 0
0 0 0
0 0 0
1 0 0
1 1 0
0 1 0
0 0 0
0 0 0
1 0 0
1 1 0
0 1 0
0 0 0
0 0 0
1 0 0
1 1 0
0 1 0
0 0 0
0 0 0
1 0 0
1 0.820845 0
0 0.289438 0
0 0 0
0 0.190735 0
0.484831 1 0
0 1 0
0 0.190735 0
0 0 0
1 0 0
1 1 0
0 1 0
0 0 0
0 0 0
1 0 0
1 1 0
0 1 0
0 0 0
0 0 0
1 0 0
1 1 0
0 1 0
0 0 0
0 0 0
0.0754174 0 0
0.699475 1 0
0 1 0
0 0 0
0 0 0
1 0 0
1 1 0
0 1 0
0 0 0
0 0 0
1 0 0
1 0.916855 0
0.960214 0.89091 0
0 0.250425 0
0 0 0
0 0.0176571 0
0.000894987 0.019113 0
0.537667 0.927235 0
0.57881 1 0
0 1 0
0 0.0176571 0
0 0 0
1 0 0
1 1 0
0 1 0
0 0 0
0 0 0
1 0 0
1 1 0
0 1 0
0 0 0
0 0 0
1 0 0
1 1 0
0 1 0
0 0 0
0 0.74439 0
0.182057 1 0
0 1 0
0 0.74439 0
0 0 0
1 0 0
1 1 0
0 1 0
0 0 0
0 0 0
1 0 0
1 1 0
0 1 0
0 0 0
0 0 0
1 0 0
1 1 0
0 1 0
0 0 0
0 0.565423 0
0.316684 1 0
0 1 0
0 0.565423 0
0 0 0
1 0 0
1 1 0
0 1 0
0 0 0
0 0 0
1 0 0
1 0.527582 0
0.441577 0.814789 0
0.116446 0.610228 0
0 0.534105 0
0 0 0
0 0 0
1 0 0
1 1 0
0 1 0
0 0 0
0 0 0
1 0 0
1 1 0
0 1 0
0 0 0
0 0 0
1 0 0
1 1 0
0 1 0
0 0 0
0 0.327818 0
0.389548 0.66012 0
0.767746 1 0
0 1 0
0 0.327818 0
0 0 0
1 0 0
1 1 0
0 1 0
0 0 0
0 0 0
1 0 0
1 1 0
0.927918 1 0
0.772811 0.909882 0
0.271032 0.611785 0
0 0.447801 0
0 0 0
0 0 0
1 0 0
1 1 0
0 1 0
0 0 0
0 0.563461 0
0.299004 1 0
0 1 0
0 0.563461 0
0 0 0
1 0 0
1 1 0
0 1 0
0 0 0
0 0 0
1 0 0
1 0.945523 0
0.375487 0.637833 0
0 0.442675 0
0 0 0
0 0.578825 0
0.299995 1 0
0 1 0
0 0.578825 0
0 0 0
1 0 0
1 1 0
0 1 0
0 0 0
0 0 0
1 0 0
1 1 0
0 1 0
0 0 0
0 0 0
1 0 0
1 1 0
0 1 0
0 0 0
0 0 0
1 0 0
1 1 0
0 1 0
0 0 0
0 0 0
1 0 0
1 1 0
0 1 0
0 0 0
0 0 0
1 0 0
1 1 0
0 1 0
0 0 0
0 0 0
1 0 0
1 1 0
0 1 0
0 0 0
0 0.170667 0
0.226744 0.57462 0
0.454193 1 0
0 1 0
0 0.170667 0
0 0 0
1 0 0
1 1 0
0 1 0
0 0 0
0 0 0
1 0 0
1 1 0
0 1 0
0 0 0
0 0 0
1 0 0
1 0.951324 0
0.0872799 0.423885 0
0 0.371296 0
0 0 0
0 0 0
1 0 0
1 1 0
0 1 0
0 0 0
0 0 0
1 0 0
1 1 0
0 1 0
0 0 0
0 0 0
0.00793615 0 0
0.303463 0.59016 0
0.488652 1 0
0 1 0
0 0 0
0 0 0
1 0 0
1 1 0
0 1 0
0 0 0
0 0 0
1 0 0
1 0.922737 0
0.209722 0.449266 0
0 0.318529 0
0 0 0
0 0 0
1 0 0
1 1 0
0 1 0
0 0 0
0 0 0
1 0 0
1 1 0
0 1 0
0 0 0
0 0 0
1 0 0
1 1 0
0 1 0
0 0 0
0 0 0
1 0 0
1 1 0
0.951467 1 0
0.141615 0.407383 0
0 0.301967 0
0 0 0
0 0 0
1 0 0
1 1 0
0 1 0
0 0 0
0 0 0
1 0 0
1 1 0
0 1 0
0 0 0
0 0 0
1 0 0
1 1 0
0 1 0
0 0 0
0 0 0
1 0 0
1 1 0
0 1 0
0 0 0
0 0 0
1 0 0
1 1 0
0 1 0
0 0 0
0 0 0
1 0 0
1 1 0
0 1 0
0 0 0
0 0 0
1 0 0
1 1 0
0 1 0
0 0 0
0 0.205649 0
0.652731 0.656839 0
0.606457 0.75055 0
0.474084 1 0
0 1 0
0 0.205649 0
0 0 0
1 0 0
1 1 0
0 1 0
0 0 0
0 0 0
1 0 0
1 1 0
0.836275 1 0
0 0.504612 0
0 0 0
0 0 0
1 0 0
1 1 0
0 1 0
0 0 0
0 0 0
1 0 0
1 1 0
0 1 0
0 0 0
0 0 0
1 0 0
1 1 0
0 1 0
0 0 0
0 0 0
1 0 0
1 1 0
0 1 0
0 0 0
0 0.298104 0
0.252721 0.625152 0
0.528039 1 0
0 1 0
0 0.298104 0
0 0 0
1 0 0
1 1 0
0.857883 1 0
0 0.507743 0
0 0 0
0 0 0
1 0 0
1 1 0
0 1 0
0 0 0
0 0 0
1 0 0
1 1 0
0 1 0
0 0 0
0 0 0
1 0 0
1 1 0
0 1 0
0 0 0
0 0.208952 0
0.531365 1 0
0 1 0
0 0.208952 0
0 0 0
1 0 0
1 1 0
0 1 0
0 0 0
0 0 0
1 0 0
1 1 0
0.851129 1 0
0.80776 0.971919 0
0.274093 0.619641 0
0 0.435741 0
0 0 0
0 0.235325 0
0.541113 1 0
0 1 0
0 0.235325 0
0 0 0
1 0 0
1 1 0
0 1 0
0 0 0
0 0 0
1 0 0
1 1 0
0 1 0
0 0 0
0 0 0
1 0 0
1 1 0
0 1 0
0 0 0
0 0 0
1 0 0
1 0.663733 0
0 0.289701 0
0 0 0
0 0 0
1 0 0
1 1 0
0 1 0
0 0 0
0 0 0
1 0 0
1 1 0
0 1 0
0 0 0
0 0 0
0.00610103 0 0
0 0.0059674 0
0 0 0
0 0 0
[...]
CELL_DATA 4836
FIELD FieldData 3
weight 1 4836 float
 0.990718 1.00314 1.00937 0.977884 1.03434 0.996883 1.02187 0.927892 1.02788 0.978158 1.02192 0.909537 0.85292 0.915562 0.972063 0.965474 0.909127 1.00925 0.927912 0.934457 1.03418 0.878357 0.984285 1.02203 0.915702 1.00293 0.884339 0.940425 0.909566 0.946915 1.00337 0.959325 1.00937 1.10933 0.965495 1.12173 1.09051 1.09666 1.01556 1.09061 1.10333 1.09672 1.10936 1.0404 1.15917 1.11546 1.1407 0.847094 1.12186 1.02824 1.16559 0.99047 1.13459 1.12794 0.871899 1.15317 1.12166 0.953365 1.13444 1.10295 1.10293 0.965748 1.13423 1.10918 1.02825 0.878316 0.90309 1.10334 1.12164 1.0843 1.12198 1.03441 1.10944 1.11551 1.09693 0.997086 1.11587 1.05952 1.06544 1.07834 1.03446 1.10939 1.08422 1.0845 1.1095 1.07823 1.07181 1.05931 1.09705 1.00948 1.03436 0.884433 1.06543 1.04689 1.02828 1.05942 1.04055 0.83418 1.02206 1.05335 1.0656 1.05326 1.08447 1.09685 0.822111 1.07801 1.01572 1.06545 1.03458 0.859271 1.07835 1.08452 1.09039 0.853272 1.05933 1.06562 1.07209 1.10916 0.872025 1.0783 1.0782 1.08434 1.07176 1.06555 1.07168 1.06561 1.05944 0.946841 1.04709 0.971993 1.05914 1.05958 1.05328 1.07192 1.0719 0.915671 1.0533 1.02791 1.05301 0.94674 1.04706 1.06572 1.14063 1.12186 0.959215 1.10305 1.11573 1.05931 1.09062 0.996835 1.10933 1.12193 1.10942 0.940687 1.04688 1.10327 1.11545 1.0094 1.1219 1.05325 1.11538 1.10295 1.12185 1.06557 0.971849 1.09038 1.07188 1.11572 1.02827 1.10301 1.07169 1.00293 1.10915 1.07822 1.0842 0.865526 1.09682 1.13428 1.12819 0.903293 1.10303 1.09051 1.0967 1.09066 1.11553 0.965565 1.10328 1.09663 1.09668 0.915861 1.10934 1.08449 0.909341 1.09074 1.11571 1.10333 1.10934 1.08439 1.11575 1.09676 0.990844 1.0907 1.07197 1.09047 1.09086 1.09039 0.997027 1.0596 1.07796 1.08424 1.07807 1.07199 1.07797 1.09689 1.11543 1.06586 1.09681 1.05942 1.09062 1.07797 0.959553 1.09067 1.10956 1.08443 1.05334 1.08428 1.08457 0.977962 1.10318 1.07828 1.07179 1.05321 0.984596 1.06567 1.10932 0.978247 1.05916 1.04046 1.06561 1.05954 1.0529 1.04039 0.897082 1.06556 1.0346 1.04059 1.02832 1.04063 1.0407 1.07194 0.909563 1.0783 1.07806 1.06553 1.08421 1.05953 0.92167 1.07181 1.06585 1.07815 0.915642 1.06581 1.05934 1.02211 1.06539 1.0593 0.903197 1.07208 1.04709 1.05333 1.0468 1.04703 1.05947 0.934183 1.02173 1.04684 1.04683 1.01551 1.01577 1.0468 1.05321 1.0408 0.928173 1.05308 1.05305 1.07185 1.04665 1.04712 1.04071 1.03438 1.04065 1.05956 1.05292 1.07163 1.05937 1.00934 1.05939 1.06564 1.02802 1.05957 1.04705 0.996693 1.02798 1.07209 1.0905 1.02794 1.00926 1.00922 1.0968 1.02837 1.03446 1.08418 1.06567 1.10317 0.990454 1.00316 1.02196 1.09684 1.0343 0.971752 1.00299 1.10336 0.996958 1.03444 1.01572 1.02827 1.01552 1.09695 1.00959 1.02831 0.984354 1.04041 1.08447 1.05309 1.07197 0.890833 1.04676 1.07798 1.09054 1.05324 0.915813 1.03431 0.972074 1.05334 1.07835 1.05335 1.03449 1.04044 1.09696 1.0406 1.01538 1.03429 1.01568 1.10313 1.02207 1.04692 1.0093 1.02811 1.0467 0.890835 1.04046 1.07821 1.04696 1.05918 1.05917 1.04079 0.896845 0.884257 1.01568 1.02821 1.04668 1.07209 1.02791 1.07164 0.890564 1.06587 1.00926 1.08416 1.07823 1.00334 1.05302 0.996705 0.896779 0.978102 1.07835 1.02196 1.06564 0.909518 1.09685 0.977934 1.09073 0.971942 1.08433 0.846897 0.921631 1.04679 1.09065 0.97815 1.00295 0.934149 1.06565 0.990634 0.934301 1.05296 0.96539 1.07185 0.971646 1.05306 0.896688 0.953255 1.05915 1.00297 1.05914 0.915476 1.07197 1.01583 1.07797 0.965638 0.953173 0.927918 0.946706 1.07195 0.934558 1.05956 1.05332 0.902882 0.997034 1.07209 0.953038 0.959319 0.90314 0.978085 0.997065 0.984515 0.9281 1.02192 0.95939 0.915735 0.965441 1.01577 0.959447 0.909434 0.99681 0.990727 1.02168 0.984197 0.92201 0.921715 0.996922 1.0033 0.996771 0.934477 1.03415 1.00326 1.04076 0.934564 0.972058 1.02185 0.94074 1.02183 1.04055 0.940478 0.965446 1.00955 1.00298 0.953209 1.00942 1.02795 0.978139 0.984468 0.984447 0.946712 1.01569 0.978111 1.00937 0.971871 0.978209 0.971696 0.990642 1.02198 0.990501 1.04685 0.996968 0.959197 1.00337 0.972088 0.959523 0.984528 1.02837 1.04688 0.971849 1.02798 0.92791 1.05915 0.997065 0.946691 1.04693 0.940484 1.03424 1.02193 0.946916 1.04687 1.00952 1.02169 0.928295 1.02834 0.965609 1.0032 1.03448 1.01558 0.947077 0.977883 1.00317 0.98416 0.978001 1.01549 1.02834 1.02171 1.01559 0.959536 1.02793 1.02192 1.01566 1.0157 0.997042 1.00962 1.02172 0.965449 0.984323 1.01577 1.00312 1.00333 1.02173 1.00922 0.978243 1.02802 0.984263 1.02207 0.984352 0.959413 1.02203 1.0096 0.99665 1.03461 0.990438 1.0343 1.01553 1.04704 1.02826 1.03427 1.01566 1.04081 1.00324 0.915548 1.00303 1.03416 1.0406 0.977935 1.05324 1.03448 1.04062 0.940854 1.04698 1.00923 1.02171 1.06542 0.934521 1.05317 1.02809 1.04676 1.02799 1.03428 1.01557 0.996981 0.996707 0.984168 1.02807 1.00915 0.990784 1.02818 0.996996 0.921658 1.00337 1.03439 0.940532 0.971772 0.909586 1.00333 1.00954 1.03449 1.01559 1.04077 0.997091 1.02209 0.940831 0.984247 0.996858 0.977937 1.02212 0.959551 1.02176 0.953163 1.00914 0.965717 0.990496 0.990536 0.996923 0.965581 1.00918 0.996728 1.00297 0.946983 0.990526 0.978175 0.953258 0.990768 1.02212 0.890685 0.928341 1.00335 0.959413 0.840711 0.990541 0.940613 0.978089 0.834342 1.03456 0.97833 1.03413 0.859325 0.959427 1.02803 0.971765 1.07163 0.965426 0.98461 1.06568 0.984135 1.04073 0.971898 1.01546 0.865575 1.00962 0.984245 0.996746 0.984457 1.02797 0.847023 1.02211 0.94682 0.884562 1.08446 0.965592 0.859354 1.07808 0.978021 0.853088 0.953108 1.05949 0.953091 0.85931 0.946803 1.10326 0.997121 0.871636 0.909596 0.984322 1.09044 1.08435 0.878267 1.09068 0.897107 0.965756 0.865482 1.04067 0.890525 0.965598 1.02196 0.921956 0.990751 1.05337 0.934604 1.08442 0.977911 0.990516 1.00295 1.05326 1.01574 0.959204 0.921901 1.00326 0.97833 1.0092 0.972024 1.04059 0.978126 0.971786 1.01565 0.978215 0.952909 1.02179 0.953052 0.865653 0.997049 0.96577 0.997105 0.971835 0.896829 0.99057 0.903319 0.940755 0.890758 0.984251 0.965675 0.953043 0.928279 1.01538 0.959208 0.952934 0.990563 0.971878 0.940485 0.984416 0.965741 0.946702 1.02799 0.922013 0.953263 1.02171 0.940601 0.946735 1.03449 0.909215 1.07796 1.10318 1.09664 1.04708 1.09669 1.09695 1.08439 1.08434 1.09076 1.06581 1.08449 1.07791 1.07821 1.09058 0.865755 1.0095 1.0717 0.878368 1.07825 1.07163 1.00325 1.05333 0.890874 0.840537 1.06582 1.02824 1.04706 0.872051 1.05301 0.871826 1.05936 0.884138 1.04074 0.878188 1.05298 1.02791 1.04672 1.07199 1.04682 1.05933 0.87818 1.05333 1.04087 1.01566 0.921855 1.08427 0.902928 1.1158 0.853265 1.05915 1.12173 0.903157 1.05913 1.12202 1.12167 1.02808 0.853271 1.14675 1.14051 1.13428 1.03434 1.1221 0.871924 1.12798 1.14053 1.03433 1.13452 1.13415 1.15295 1.15301 1.03413 0.872058 1.04691 1.14691 0.884503 1.15293 0.865544 1.028 1.15957 1.06553 0.884398 1.06562 1.15927 0.890492 1.05921 1.14042 1.1471 0.90945 1.14702 1.03458 1.15318 1.04697 1.15916 0.890852 1.15317 0.871976 1.05302 1.14071 0.896899 0.909541 1.11571 1.03461 1.12795 0.903129 0.915487 1.04042 1.12824 1.13459 1.13434 0.88436 0.940862 1.12196 1.04686 0.934129 0.909332 1.10933 1.01561 0.91569 0.896841 1.05933 0.928273 1.10302 0.934404 0.909549 1.0406 0.921933 0.909133 1.10943 1.04667 1.12835 0.928098 1.06542 0.946872 1.11562 1.05306 0.934443 1.14072 0.953258 1.04664 1.14049 1.05917 0.940527 1.13424 0.959576 1.0405 1.14073 0.915583 0.927998 1.14667 1.04068 0.952916 0.946809 1.15297 1.05322 1.13413 1.02207 0.915527 1.02816 0.878109 1.12813 1.03432 0.896806 1.12209 1.04667 0.903123 0.852893 1.14057 1.04038 1.15324 1.04055 1.12806 0.921689 1.03452 0.922055 1.16577 1.04671 1.1595 1.0033 1.15962 0.88445 0.878068 1.02789 1.17186 0.921784 1.17179 1.03423 0.884175 1.17202 1.16587 1.14697 1.01555 0.947033 1.15913 0.928034 1.15939 0.98446 0.928079 0.890571 1.15941 0.940453 0.940474 1.1721 1.02194 1.17807 0.978291 1.17805 0.903058 1.17803 1.00933 0.959402 0.947074 1.17814 0.953268 1.17195 1.00957 0.940694 1.16554 1.17194 0.965792 1.17817 0.94706 1.0221 1.18417 1.17827 0.984324 1.14711 0.965813 1.15944 1.01578 1.15334 0.972003 1.03439 1.15959 0.99083 1.15928 1.16545 1.02792 0.953267 1.14682 0.996856 1.15313 1.13415 0.984536 1.00927 1.02211 1.17199 0.984279 1.15324 0.984157 1.16547 1.03451 1.17177 1.00307 1.16545 0.977943 1.17828 1.02195 0.990473 1.18437 1.16566 0.984405 1.17212 0.996833 1.15309 0.996827 1.17205 0.971947 1.16573 1.04058 1.02163 0.996785 1.11552 1.00323 1.00958 0.99057 1.11543 1.02803 1.00957 0.978055 1.10918 1.00925 1.01586 1.12205 0.971925 1.02799 1.02798 1.12171 0.990592 0.965765 0.990472 1.11586 0.978144 1.00304 0.990821 0.996757 1.00925 1.01574 1.00952 1.09674 0.971753 0.990755 0.996692 0.984554 0.953007 1.10337 1.03433 1.0221 0.934162 1.09058 1.01573 1.01573 0.959596 1.0969 0.971928 1.01567 1.02184 0.996728 0.990598 1.10949 0.984487 1.00316 1.10943 1.0344 1.12799 0.953298 0.996922 1.12207 0.89064 1.13434 1.05327 0.996812 1.12807 0.959508 1.14083 0.99072 0.965494 1.04672 1.11585 1.00935 0.990504 1.04682 1.10322 1.00303 0.990819 1.05918 1.1221 0.971896 0.896837 0.984276 1.12203 0.972025 0.928293 0.971647 0.946838 1.11564 0.934189 1.02205 0.915539 1.10924 0.953091 1.01585 1.04062 0.915786 1.08415 0.91549 0.959522 1.00947 1.00311 0.940632 1.00932 1.05932 1.01559 0.971846 1.07164 0.978334 0.971715 0.953261 0.977897 1.10332 0.94692 0.965838 0.984429 1.08439 0.984221 0.997 0.978138 1.07796 1.02826 0.965439 1.04709 1.022 0.96584 0.984425 0.965805 0.947003 0.990732 1.02809 0.959272 0.934562 1.05926 0.996766 0.890717 0.978124 1.00309 1.05303 0.95931 0.940479 0.971805 0.971903 0.921653 1.03432 0.947038 0.959503 0.865508 0.953183 1.10946 0.971762 0.965453 0.94072 0.897086 0.978282 1.10303 0.965721 1.01583 1.09078 0.946886 0.815756 1.02801 1.11558 0.915676 0.847106 0.996965 0.915704 1.09676 0.990794 0.928219 0.872011 1.04682 0.928323 1.07826 1.0219 0.796871 0.940638 0.971956 0.903194 1.03428 0.940479 1.09706 1.0029 0.82187 0.959215 1.09067 0.934524 1.03413 1.07189 0.946968 1.02794 1.06567 1.1346 1.15315 1.12825 0.953245 1.15302 1.14683 1.00959 1.15914 0.921941 1.14706 1.13428 1.02831 0.927995 1.1279 0.896831 1.0654 1.11573 0.946667 1.14067 1.04691 0.909263 1.12165 1.14044 1.05943 1.1532 0.927961 1.14681 0.865691 1.16557 1.16541 1.16581 1.0656 0.934213 1.1593 1.1342 1.14679 0.890399 1.0967 1.14666 0.915407 1.14686 1.04053 1.15936 0.909369 0.828227 1.1408 1.10293 0.878041 0.878285 0.896651 1.10943 1.05301 0.802955 1.12177 0.959477 1.04075 0.921916 1.10306 1.07795 0.959593 1.10933 1.07165 0.746747 0.952994 1.12208 1.07182 0.952979 1.13438 1.04666 0.703114 0.934496 1.09079 1.09084 0.959354 1.09709 1.1155 0.965852 1.07797 1.07187 0.952886 0.965529 1.10928 0.74668 1.09691 1.08435 0.903124 0.965672 1.07821 0.940741 1.14076 0.996861 1.12818 0.965434 1.02201 1.12207 1.14085 1.13437 0.909618 0.978111 0.921928 1.12823 0.940777 0.897063 0.928283 1.09677 0.928262 0.902912 1.10298 0.915423 0.997044 1.12813 0.921734 0.928302 0.934586 1.13426 0.934591 1.00922 0.909355 1.11562 1.00318 0.934402 1.1155 0.984301 0.91551 0.921785 0.934333 0.965391 0.93432 0.928272 0.978015 1.09055 1.09052 0.940574 1.10294 0.990428 0.953208 1.08434 1.0971 1.08423 0.953246 0.959526 1.11561 1.11578 1.09692 0.953157 0.946693 1.10942 1.10311 0.978342 1.08418 0.953137 1.07837 1.07812 0.909143 1.07795 1.07182 1.07189 1.00929 0.965705 1.08413 0.915547 1.09705 0.959543 1.09055 0.959242 0.909501 1.09055 0.915811 1.07813 0.984322 0.953079 1.06546 0.915603 1.0845 1.10944 0.971809 0.846995 1.11584 1.12184 1.12827 0.934402 1.10296 1.09707 1.11574 0.946926 0.903169 0.859232 1.13454 1.12812 1.14067 1.122 1.12164 0.922004 1.11569 0.903339 1.10957 0.859484 1.10961 0.959323 1.09663 1.10952 0.921716 1.09709 0.922038 1.09053 0.940833 0.915869 1.10309 0.871772 1.10295 1.09705 1.09054 0.87835 0.852886 1.0843 1.09057 1.09693 1.06571 0.797023 1.06565 0.927951 1.05961 1.06571 1.07822 1.0655 0.872083 1.05962 1.05946 1.04054 0.946668 1.05325 1.04699 1.04704 0.96539 1.05304 1.03456 1.02208 0.95945 1.03454 1.01581 1.04085 1.05337 0.94681 1.05916 0.834532 1.01539 0.959498 1.05309 1.04682 1.07207 0.95298 0.821816 1.08448 1.07819 1.07174 1.00312 0.871985 1.07816 0.977965 1.06542 1.08419 0.88413 1.07811 0.971991 1.07183 1.07175 1.00311 1.07796 0.840638 1.07809 0.978287 1.05932 0.909567 0.909342 1.07164 1.04084 0.990389 1.03419 1.0467 0.984378 1.05962 1.05953 1.07205 0.997106 1.03455 1.06578 0.996646 1.13413 1.09671 1.12788 1.14663 0.971824 1.14078 1.12171 1.13444 0.946754 1.11549 1.10956 1.14064 0.978147 1.12208 1.11573 1.10936 1.10304 0.959197 0.978213 1.10319 0.971909 1.11551 0.990431 1.11546 0.996673 1.09702 0.934363 1.11545 1.00331 0.996765 0.952929 1.10955 1.11543 1.0154 1.09697 1.0031 1.13445 0.978254 1.12807 1.02168 1.16573 0.990453 0.959159 1.13459 0.990865 1.01586 0.940618 1.1342 1.17791 0.990396 1.10929 0.928214 1.19702 1.09086 1.04059 0.997103 1.07195 0.928223 1.09042 1.00333 1.1219 1.00922 1.12821 0.934332 1.14663 0.990771 1.10929 0.92201 1.00324 0.990813 1.07818 0.972118 1.08445 1.10302 1.0094 1.00924 1.19708 1.06587 0.965743 1.01558 1.08438 1.0783 0.978203 1.04067 1.09085 0.965746 1.10944 0.996906 1.00917 1.09054 0.990459 0.984262 1.0844 1.09696 0.984194 1.08434 1.02195 1.09053 1.00316 1.07817 0.972114 1.10314 1.02795 1.07797 0.990828 1.12825 1.08455 1.02202 0.971828 0.934282 1.0907 1.05914 1.07175 1.03455 1.06559 0.946717 1.07166 1.04677 0.990389 1.03427 1.05919 0.928153 0.965436 1.0656 1.05942 0.953158 1.06576 0.940707 1.10322 1.0657 1.05943 0.93423 1.05914 0.946675 1.07167 0.940441 1.00295 1.09693 0.984621 1.1221 1.05336 0.903108 1.103 0.921759 1.0221 1.0905 0.984601 1.04041 1.01577 0.99066 1.07212 0.921831 1.0592 1.04664 1.00925 1.02793 0.890784 1.10301 1.04046 0.98433 1.07817 0.909609 1.05305 1.06582 1.01574 1.04086 1.0782 1.04701 1.04695 0.990554 1.04082 1.00306 1.02198 1.01566 1.03416 0.959501 1.05933 1.04049 0.965434 1.01584 1.02826 1.01574 1.02821 1.00943 0.971844 1.05913 0.997095 0.921643 1.0031 0.953341 1.05337 0.915745 1.0344 0.978321 0.902945 1.03444 1.02807 1.06555 0.959151 0.928144 1.0095 0.953245 0.915604 1.00303 1.07836 1.00918 0.978354 1.02814 0.896825 1.04671 0.946719 0.990638 0.896751 1.06573 0.984289 0.97169 1.07212 0.996645 0.915609 0.990765 0.978118 1.05917 0.902978 0.997017 0.990843 1.07202 0.978029 0.959315 1.07828 0.996695 1.00288 0.97175 1.0906 0.990752 0.965511 1.01545 1.08439 0.940849 0.965816 0.934613 1.08433 0.997084 0.971664 1.08415 0.990715 1.03416 1.04673 1.05295 1.09702 0.971974 1.02163 1.02827 1.04677 0.971892 0.909297 1.0407 1.04078 0.997109 1.03445 0.915409 1.02833 0.965779 1.02172 1.02212 1.02805 0.915689 1.02184 1.00327 1.01556 1.00937 1.02169 0.928116 0.940784 1.01582 0.952953 1.02811 1.04045 0.940687 0.978071 1.02201 1.02173 1.00305 0.93449 0.996958 0.934232 0.953118 0.928226 0.952876 0.959603 0.978274 0.921956 0.953196 0.915591 0.940462 0.98414 0.959517 0.965551 0.959469 0.996725 0.928107 0.909595 0.946756 0.984361 0.934243 0.984473 0.928238 0.934483 0.971648 0.959415 0.953271 0.965554 0.915584 0.965811 0.971808 0.947029 0.977988 0.946769 0.940507 1.00954 0.940669 0.922109 0.971976 1.02182 0.884535 0.971986 1.00919 0.940465 1.00329 0.928081 0.92196 0.996994 0.89702 0.959507 0.984513 0.897039 0.978323 0.972051 0.971934 1.01564 0.934306 0.953148 1.02201 0.984175 0.965825 0.934574 0.89698 0.934212 0.953117 0.953069 1.00925 0.990445 1.00308 0.946741 0.89671 0.978161 0.928048 0.996876 1.0092 0.940692 0.990499 0.997095 0.978344 0.884577 1.01574 0.959528 0.971969 1.00302 1.0093 0.921676 0.972014 0.959354 0.915613 0.953253 0.98415 0.9344 0.922027 0.896655 0.940489 0.94665 0.903333 0.928301 0.971693 0.921757 0.959586 0.834414 0.903081 0.92803 0.972026 0.965808 0.984589 0.915629 0.934166 0.990739 0.903353 0.953102 0.909599 0.946922 0.978174 0.897111 0.984512 0.959615 1.05315 0.978308 1.05305 1.04699 0.896838 1.04697 0.978003 1.02812 0.928132 1.0529 0.98433 1.03449 1.04684 0.965671 1.04051 1.03444 1.05925 0.953341 1.04703 0.990742 1.02788 1.0532 0.95293 1.00938 1.01547 1.04077 0.965558 1.02788 1.02798 1.01549 1.0346 1.04664 1.04058 1.02165 1.00313 0.990456 1.00293 1.05292 1.00916 1.08415 0.940848 1.03424 1.03437 0.972034 1.0595 1.05335 0.953166 1.03448 0.984486 1.05289 1.00315 0.884424 1.08428 0.971928 0.959476 1.00946 1.03413 0.921767 1.06541 1.003 0.978039 1.0217 1.01558 1.01562 0.890393 1.0407 1.0157 0.896848 1.02202 1.00922 1.07202 0.940679 1.0283 1.04044 1.05334 0.98458 0.946634 0.971718 1.04678 1.04079 0.990418 0.972048 1.0094 0.996703 1.01561 0.996769 0.909431 1.04071 1.01586 1.0092 0.959149 0.990384 0.996706 1.04067 0.997041 0.947096 1.00914 0.984243 0.984506 0.965851 1.01569 0.996653 1.00307 0.928355 1.00322 1.07173 0.909399 0.977915 1.05325 0.984266 0.934156 0.990668 0.971675 0.915499 1.05943 0.978294 0.971772 0.977918 1.02805 0.928142 0.990527 0.965622 0.890483 1.04068 1.05301 1.02788 0.878333 1.02809 1.00303 1.04696 0.997112 1.00959 1.02811 0.984348 1.06558 1.00303 0.99047 1.02175 0.934573 1.01576 1.0406 0.877903 0.977977 1.05954 0.971633 0.965861 0.978299 0.990504 0.959547 1.07788 0.953242 0.853349 0.990538 0.940683 0.959625 1.03416 1.08454 1.06556 0.965728 1.05324 1.02163 1.09049 1.00924 1.10327 0.996989 1.10332 0.853222 0.959558 1.09052 0.947062 1.00312 1.09671 0.828292 1.07195 0.965849 0.859625 1.09672 0.977896 1.07817 0.840788 0.965541 1.10332 1.10951 1.05313 0.865489 1.10927 1.02822 1.00934 1.05327 1.01587 1.02809 1.04701 1.0467 1.04075 1.03441 0.940873 1.03452 1.06574 0.846855 0.947123 0.996814 1.07804 0.996857 0.921762 0.878023 0.921693 1.00955 1.04687 0.928209 0.884264 0.990676 1.04676 0.934516 0.896948 1.05291 0.98432 0.884385 0.909299 1.07188 0.940855 0.872025 0.897042 0.946851 0.903078 0.890422 1.05929 0.940721 0.934244 0.897083 0.928188 0.921731 0.922087 0.959413 0.88431 1.09083 0.87821 0.953102 0.922028 0.940684 0.928339 1.09084 0.902914 0.947098 0.928249 1.09668 0.896801 0.909388 1.11577 0.909522 0.903007 1.09668 0.859572 1.12168 0.890474 0.89087 0.953131 1.10324 0.896914 0.921825 0.940794 1.10302 0.902963 1.1092 0.896839 1.12195 0.878219 1.11557 0.921932 0.834449 1.04061 0.890381 0.859187 0.87829 0.840706 1.05327 0.915715 0.971842 0.86566 0.91575 0.965627 0.909581 1.05935 0.884495 0.934601 0.87833 0.884338 1.04076 0.865841 0.953101 0.903318 0.846662 1.04677 0.978246 0.902977 0.934459 0.884463 1.05302 0.902942 1.05938 0.84044 0.915722 1.06544 0.89085 0.846728 1.07183 0.909292 0.903159 0.922072 1.07788 0.940781 1.0531 0.890645 0.897015 1.06566 0.90927 1.07822 1.04038 0.821773 1.07804 1.05915 1.07182 0.865578 1.09061 1.04076 1.10308 1.08456 1.06586 0.846827 1.07837 1.05336 0.871853 1.08454 1.00328 0.86544 1.10913 0.840838 1.01555 1.12804 0.984294 1.09708 1.00953 0.946894 1.06563 0.990862 0.846867 1.04674 0.940516 1.0844 0.953178 0.872027 1.02169 0.928154 0.997102 1.09056 0.946882 0.965504 0.828284 1.09069 0.971871 0.959526 1.02163 1.08432 0.834209 1.00943 0.928155 0.828309 0.953278 1.0779 1.10315 0.896752 0.902992 1.10301 1.07191 0.978007 0.984515 0.859609 1.05956 1.0906 0.834416 1.07188 0.93449 1.09703 0.853226 1.0782 1.11544 0.815611 1.06587 0.902918 0.871761 1.12189 1.06552 0.921868 1.12204 1.04081 0.915779 1.00313 1.12789 0.852996 1.01561 1.0969 0.909139 1.05925 0.877935 1.12212 0.921643 1.04053 1.11566 0.952978 0.834275 1.02832 1.11545 0.915469 0.821989 0.990477 0.990577 1.13423 0.927918 0.946719 0.827925 0.984602 0.965514 1.14071 0.834374 0.953346 1.00336 1.12201 0.840817 0.990809 1.1344 1.14059 0.947007 0.971717 1.13427 0.821719 0.978038 1.14082 0.947101 0.871893 0.97183 0.978057 1.07209 0.903252 0.921935 0.96578 0.872017 1.08437 0.903178 0.890504 0.95962 1.09694 0.859586 0.934458 0.934172 1.09086 0.934231 0.915645 0.971965 1.10296 0.909521 0.915425 0.88445 0.996739 1.10919 0.965759 0.859221 1.10312 0.878234 1.00292 0.890467 0.921921 0.909349 1.1094 0.959299 0.934612 0.865566 0.934196 1.10932 1.00308 0.9158 0.940465 1.11568 1.00932 0.853178 0.959233 1.12174 0.840708 0.996889 0.928294 1.10948 0.884263 0.98421 0.927991 0.853041 0.959167 1.11543 0.940455 0.846843 0.927877 1.11577 0.940598 0.852981 0.996962 0.871671 0.940436 0.947101 1.10952 0.9467