# vtk DataFile Version 3.0
vtk output
ASCII
DATASET UNSTRUCTURED_GRID
POINTS 29473 float
0 0 0
1 0 0
1 1 0
0 1 0
0 0 0
0 0 0
1 0 0
1 1 0
0 1 0
0 0 0
0 0 0
1 0 0
1 1 0
0 1 0
0 0 0
0 0 0
1 0 0
1 1 0
0 1 0
0 0 0
0 0 0
1 0 0
1 1 0
0 1 0
0 0 0
0.151913 0 0
1 0 0
1 0.895514 0
0.541924 0.431121 0
0.151913 0 0
0 0 0
1 0 0
1 1 0
0 1 0
0 0 0
0 0 0
1 0 0
1 1 0
0 1 0
0 0 0
0 0 0
1 0 0
1 1 0
0 1 0
0 0 0
0 0 0
1 0 0
1 1 0
0 1 0
0 0 0
0.265519 0 0
1 0 0
1 0.936948 0
0.730707 0.606258 0
0.265519 0 0
0 0 0
1 0 0
1 1 0
0 1 0
0 0 0
0 0 0
1 0 0
1 1 0
0 1 0
0 0 0
0 0 0
1 0 0
1 1 0
0 1 0
0 0 0
0 0 0
1 0 0
1 1 0
0 1 0
0 0 0
0 0 0
1 0 0
1 1 0
0 1 0
0 0 0
0 0 0
1 0 0
1 1 0
0 1 0
0 0 0
0.272723 0 0
1 0 0
1 0.790023 0
0.618253 0.389641 0
0.272723 0 0
0 0 0
1 0 0
1 1 0
0 1 0
0 0 0
0 0 0
1 0 0
1 1 0
0 1 0
0 0 0
0 0 0
1 0 0
1 1 0
0 1 0
0 0 0
0.231629 0 0
1 0 0
1 0.954583 0
0.79897 0.709606 0
0.236643 0.00643017 0
0.231629 0 0
0 0 0
1 0 0
1 1 0
0 1 0
0 0 0
0 0 0
1 0 0
1 1 0
0 1 0
0 0 0
0 0 0
1 0 0
1 1 0
0 1 0
0 0 0
0 0 0
1 0 0
1 1 0
0 1 0
0 0 0
0 0 0
1 0 0
1 1 0
0 1 0
0 0 0
0 0 0
1 0 0
1 1 0
0.697709 1 0
0.261163 0.44701 0
0 0.110076 0
0 0 0
0 0 0
1 0 0
1 1 0
0 1 0
0 0 0
0 0 0
1 0 0
1 1 0
0 1 0
0 0 0
0 0 0
1 0 0
1 1 0
0 1 0
0 0 0
0 0 0
1 0 0
1 1 0
0 1 0
0 0 0
0 0 0
1 0 0
1 1 0
0 1 0
0 0 0
0 0 0
1 0 0
1 1 0
0 1 0
0 0 0
0 0 0
1 0 0
1 1 0
0 1 0
0 0 0
0 0 0
1 0 0
1 1 0
0 1 0
0 0 0
0 0 0
1 0 0
1 1 0
0 1 0
0 0 0
0.139762 0 0
1 0 0
1 1 0
0.888551 1 0
0.139762 0 0
0 0 0
0.0197485 0 0
0.481749 0.458432 0
1 0.998116 0
1 1 0
0 1 0
0 0 0
0 0 0
0.0592627 0 0
0.424045 0.36649 0
1 0.963887 0
1 1 0
0 1 0
0 0 0
0 0 0
1 0 0
1 1 0
0 1 0
0 0 0
0 0 0
1 0 0
1 1 0
0 1 0
0 0 0
0 0 0
1 0 0
1 1 0
0 1 0
0 0 0
0 0 0
1 0 0
1 1 0
0 1 0
0 0 0
0 0 0
1 0 0
1 1 0
0.852036 1 0
0.145236 0.178838 0
0 0.00266392 0
0 0 0
0 0 0
0.210671 0 0
0.552802 0.384266 0
1 0.911396 0
1 1 0
0 1 0
0 0 0
0 0 0
1 0 0
1 1 0
0 1 0
0 0 0
0 0 0
1 0 0
1 1 0
0 1 0
0 0 0
0 0 0
1 0 0
1 1 0
0 1 0
0 0 0
0 0 0
1 0 0
1 1 0
0 1 0
0 0 0
0 0 0
1 0 0
1 1 0
0 1 0
0 0 0
0 0 0
1 0 0
1 1 0
0 1 0
0 0 0
0 0 0
1 0 0
1 1 0
0 1 0
0 0 0
0 0 0
1 0 0
1 1 0
0 1 0
0 0 0
0 0 0
1 0 0
1 1 0
0.687008 1 0
0 0.0248442 0
0 0 0
0 0.12651 0
0.0673378 0.169879 0
0.155179 0.227744 0
1 0.799834 0
1 1 0
0 1 0
0 0.12651 0
0 0 0
1 0 0
1 1 0
0 1 0
0 0 0
0 0 0
1 0 0
1 1 0
0 1 0
0 0 0
0 0 0
1 0 0
1 1 0
0 1 0
0 0 0
0 0.148864 0
0.0378622 0.172085 0
0.13182 0.231008 0
1 0.790517 0
1 1 0
0 1 0
0 0.148864 0
0 0 0
1 0 0
1 1 0
0 1 0
0 0 0
0 0 0
1 0 0
1 1 0
0 1 0
0 0 0
0 0 0
1 0 0
1 1 0
0 1 0
0 0 0
0.0660565 0 0
1 0 0
1 0.894654 0
0.468838 0.400554 0
0.0660565 0 0
0 0 0
1 0 0
1 1 0
0 1 0
0 0 0
0 0.202616 0
0.638698 0.538675 0
1 0.738543 0
1 1 0
0 1 0
0 0.202616 0
0.330311 0 0
1 0 0
1 0.882851 0
0.821037 0.658524 0
0.330311 0 0
0 0 0
1 0 0
1 1 0
0 1 0
0 0 0
0 0 0
1 0 0
1 1 0
0 1 0
0 0 0
0 0 0
0.317185 0 0
1 0.836438 0
1 1 0
0 1 0
0 0 0
0 0 0
1 0 0
1 1 0
0 1 0
0 0 0
0.251981 0 0
1 0 0
1 0.965415 0
0.79762 0.709298 0
0.251981 0 0
0 0 0
1 0 0
1 1 0
0 1 0
0 0 0
0 0 0
1 0 0
1 1 0
0 1 0
0 0 0
0 0 0
1 0 0
1 1 0
0 1 0
0 0 0
0 0.224971 0
0.177247 0.318282 0
1 0.769625 0
1 1 0
0 1 0
0 0.224971 0
0 0 0
1 0 0
1 1 0
0 1 0
0 0 0
0.101806 0 0
1 0 0
1 1 0
0.825773 1 0
0.101806 0 0
0 0 0
1 0 0
1 1 0
0 1 0
0 0 0
0 0.166387 0
1 0.822187 0
1 1 0
0 1 0
0 0.166387 0
0 0 0
1 0 0
1 1 0
0 1 0
0 0 0
0 0 0
1 0 0
1 1 0
0 1 0
0 0 0
0 0 0
1 0 0
1 1 0
0 1 0
0 0 0
0 0 0
1 0 0
1 1 0
0 1 0
0 0 0
0 0 0
1 0 0
1 1 0
0 1 0
0 0 0
0.209878 0.0161151 0
0.199889 0 0
1 0 0
1 1 0
0.855424 1 0
0.569934 0.574621 0
0.209878 0.0161151 0
0 0 0
1 0 0
1 1 0
0 1 0
0 0 0
0 0 0
1 0 0
1 1 0
0 1 0
0 0 0
0 0 0
1 0 0
1 1 0
0 1 0
0 0 0
0 0 0
0.324713 0 0
0.437715 0.0819856 0
1 0.502739 0
1 1 0
0 1 0
0 0 0
0 0 0
1 0 0
1 1 0
0 1 0
0 0 0
0 0 0
1 0 0
1 1 0
0 1 0
0 0 0
0 0 0
1 0 0
1 1 0
0 1 0
0 0 0
0.230699 0 0
1 0 0
1 0.952427 0
0.756424 0.6571 0
0.230699 0 0
0 0 0
1 0 0
1 1 0
0 1 0
0 0 0
0 0 0
0.419481 0 0
0.439261 0.0141276 0
1 0.423934 0
1 1 0
0 1 0
0 0 0
0 0 0
1 0 0
1 1 0
0 1 0
0 0 0
0.4908 0 0
1 0 0
1 0.855042 0
0.921464 0.727926 0
0.607948 0.205548 0
0.4908 0 0
0 0 0
1 0 0
1 1 0
0 1 0
0 0 0
0 0 0
0.194327 0 0
0.712109 0.348108 0
1 0.548903 0
1 1 0
0 1 0
0 0 0
0 0 0
1 0 0
1 1 0
0 1 0
0 0 0
0 0 0
1 0 0
1 1 0
0 1 0
0 0 0
0 0 0
1 0 0
1 1 0
0 1 0
0 0 0
0.562621 0.263226 0
0.432301 0 0
1 0 0
1 1 0
0.962503 1 0
0.588951 0.313879 0
0.562621 0.263226 0
0 0 0
0.376156 0 0
0.530246 0.100451 0
0.757633 0.254253 0
1 0.421053 0
1 1 0
0 1 0
0 0 0
0 0 0
1 0 0
1 1 0
0 1 0
0 0 0
0 0 0
1 0 0
1 1 0
0 1 0
0 0 0
0 0 0
1 0 0
1 1 0
0 1 0
0 0 0
0 0 0
1 0 0
1 1 0
0 1 0
0 0 0
0.438758 0 0
1 0 0
1 0.745786 0
0.67975 0.329627 0
0.438758 0 0
0 0 0
0.258084 0 0
0.718861 0.290024 0
0.760103 0.316757 0
1 0.478099 0
1 1 0
0 1 0
0 0 0
0 0 0
1 0 0
1 1 0
0 1 0
0 0 0
0 0 0
1 0 0
1 1 0
0 1 0
0 0 0
0 0 0
1 0 0
1 1 0
0 1 0
0 0 0
0 0 0
1 0 0
1 1 0
0 1 0
0 0 0
0.449764 0 0
1 0 0
1 0.686629 0
0.449764 0 0
0 0 0
1 0 0
1 1 0
0 1 0
0 0 0
0 0 0
1 0 0
1 1 0
0 1 0
0 0 0
0 0 0
1 0 0
1 1 0
0 1 0
0 0 0
0 0 0
1 0 0
1 1 0
0 1 0
0 0 0
0 0 0
1 0 0
1 1 0
0 1 0
0 0 0
0.400899 0 0
1 0 0
1 0.909257 0
0.68063 0.438644 0
0.580795 0.287121 0
0.400899 0 0
0 0 0
1 0 0
1 1 0
0 1 0
0 0 0
0 0 0
1 0 0
1 1 0
0 1 0
0 0 0
0 0 0
1 0 0
1 1 0
0 1 0
0 0 0
0 0 0
1 0 0
1 1 0
0 1 0
0 0 0
0 0 0
1 0 0
1 1 0
0 1 0
0 0 0
0 0 0
1 0 0
1 1 0
0 1 0
0 0 0
0 0 0
1 0 0
1 1 0
0 1 0
0 0 0
0.485379 0 0
1 0 0
1 0.879934 0
0.966928 0.826737 0
0.485379 0 0
0 0 0
1 0 0
1 1 0
0 1 0
0 0 0
0 0 0
1 0 0
1 1 0
0 1 0
0 0 0
0 0 0
0.137628 0 0
0.269768 0.0777391 0
1 0.51901 0
1 1 0
0 1 0
0 0 0
0 0 0
1 0 0
1 1 0
0 1 0
0 0 0
0.463531 0 0
1 0 0
1 0.699671 0
0.463531 0 0
0 0 0
0.15333 0 0
0.709448 0.35074 0
1 0.540953 0
1 1 0
0 1 0
0 0 0
0 0 0
1 0 0
1 1 0
0 1 0
0 0 0
0 0 0
1 0 0
1 1 0
0 1 0
0 0 0
0.489881 0 0
1 0 0
1 0.621899 0
0.505229 0.0201896 0
0.489881 0 0
0 0 0
0.1519 0 0
1 0.597182 0
1 1 0
0 1 0
0 0 0
0.575126 0 0
1 0 0
1 0.426342 0
0.82894 0.262661 0
0.741795 0.175816 0
0.575126 0 0
0 0 0
0.171294 0 0
1 0.604562 0
1 1 0
0 1 0
0 0 0
0 0 0
0.115295 0 0
0 0.0587398 0
0 0 0
0.386948 0 0
1 0 0
1 0.501955 0
0.813395 0.354213 0
0.386948 0 0
0 0 0
0.324517 0 0
0.472067 0.118303 0
1 0.550972 0
1 1 0
0 1 0
0 0 0
0.509901 0 0
1 0 0
1 0.621623 0
0.511046 0.00157129 0
0.509901 0 0
0 0 0
0.388229 0 0
0.711626 0.230326 0
1 0.445576 0
1 1 0
0 1 0
0 0 0
0.52527 0 0
1 0 0
1 0.462096 0
0.887279 0.357391 0
0.52527 0 0
0 0 0
0.291751 0 0
0.419262 0.0853699 0
1 0.486181 0
1 1 0
0 1 0
0 0 0
0 0 0
0.279528 0 0
0.642322 0.229129 0
1 0.459583 0
1 1 0
0 1 0
0 0 0
0.649901 0 0
1 0 0
1 0.217325 0
0.649901 0 0
0 0 0
0.138084 0 0
1 0.503353 0
1 1 0
0 1 0
0 0 0
0.110883 0 0
1 0 0
1 0.574555 0
0.656013 0.357029 0
0.110883 0 0
0 0 0
0.186974 0 0
0.715541 0.293329 0
0.758943 0.318165 0
1 0.461539 0
1 1 0
0 1 0
0 0 0
0 0 0
1 0 0
1 1 0
0 1 0
0 0 0
0.419512 0 0
1 0 0
1 0.920542 0
0.689132 0.442184 0
0.58842 0.282312 0
0.419512 0 0
0 0 0
1 0 0
1 1 0
0 1 0
0 0 0
0.76458 0 0
1 0 0
1 0.114788 0
0.76458 0 0
0.345921 0 0
1 0 0
1 0.901426 0
0.815636 0.659901 0
0.345921 0 0
0 0 0
1 0 0
1 1 0
0 1 0
0 0 0
0 0 0
1 0 0
1 1 0
0 1 0
0 0 0
0 0 0
1 0 0
1 1 0
0 1 0
0 0 0
0 0 0
1 0 0
1 1 0
0 1 0
0 0 0
0.457662 0 0
1 0 0
1 0.865503 0
0.457662 0 0
0 0 0
1 0 0
1 1 0
0 1 0
0 0 0
0 0 0
1 0 0
1 1 0
0 1 0
0 0 0
0.79773 0 0
1 0 0
1 0.0915614 0
0.79773 0 0
0 0 0
1 0 0
1 1 0
0 1 0
0 0 0
0.329779 0 0
1 0 0
1 1 0
0.997012 1 0
0.724221 0.606981 0
0.329779 0 0
0 0 0
1 0 0
1 1 0
0 1 0
0 0 0
0 0 0
1 0 0
1 1 0
0 1 0
0 0 0
0 0 0
1 0 0
1 1 0
0 1 0
0 0 0
0 0 0
0.148603 0 0
0 0.0614326 0
0 0 0
0.446454 0 0
1 0 0
1 0.957839 0
0.693987 0.444206 0
0.597468 0.276606 0
0.446454 0 0
0 0 0
1 0 0
1 1 0
0 1 0
0 0 0
0 0 0
1 0 0
1 1 0
0 1 0
0 0 0
0 0 0
1 0 0
1 1 0
0 1 0
0 0 0
0 0 0
0.308255 0 0
0 0.191654 0
0 0 0
0.419168 0 0
1 0 0
1 1 0
0.968123 1 0
0.419168 0 0
0 0 0
0.231727 0 0
0.384841 0.0916828 0
1 0.471372 0
1 1 0
0 1 0
0 0 0
0.49005 0 0
1 0 0
1 0.707168 0
0.49005 0 0
0 0 0
0.27698 0 0
0 0.161646 0
0 0 0
0 0 0
0.292816 0 0
0.499454 0.113914 0
0.761471 0.263935 0
1 0.403359 0
1 1 0
0 1 0
0 0 0
0 0 0
1 0 0
1 1 0
0 1 0
0 0 0
0 0 0
0.0128155 0 0
0 0.00403634 0
0 0 0
0 0 0
1 0 0
1 1 0
0 1 0
0 0 0
0.532814 0 0
1 0 0
1 0.637187 0
0.532814 0 0
0 0 0
1 0 0
1 1 0
0 1 0
0 0 0
0 0 0
1 0 0
1 1 0
0 1 0
0 0 0
0 0 0
0.354078 0 0
0 0.174292 0
0 0 0
0 0 0
1 0 0
1 1 0
0 1 0
0 0 0
0 0 0
1 0 0
1 1 0
0 1 0
0 0 0
0.524008 0.134756 0
0.365507 0 0
1 0 0
1 0.512766 0
0.524008 0.134756 0
0 0 0
1 0 0
1 1 0
0 1 0
0 0 0
0.490573 0 0
1 0 0
1 0.780711 0
0.694041 0.322033 0
0.490573 0 0
0.776546 0 0
1 0 0
1 0.112793 0
0.776546 0 0
0 0.0522798 0
0.257095 0.19629 0
0.947618 0.594924 0
1 0.626333 0
1 1 0
0 1 0
0 0.0522798 0
0.486832 0 0
1 0 0
1 0.907231 0
0.486832 0 0
0 0 0
0.0266162 0 0
0.146236 0.0716379 0
1 0.593752 0
1 1 0
0 1 0
0 0 0
0 0 0
0.276502 0 0
0.242555 0.0159855 0
0 0.124942 0
0 0 0
0.679254 0 0
1 0 0
1 1 0
0.315025 1 0
0.679254 0 0
0 0 0
0.0393732 0 0
0.154454 0.0713045 0
1 0.606415 0
1 1 0
0 1 0
0 0 0
0 0 0
0.402264 0 0
0 0.218497 0
0 0 0
0 0 0
0.00209656 0 0
0 0.00378855 0
0 0 0
0 0.028151 0
0.8181 0.523367 0
1 0.63839 0
1 1 0
0 1 0
0 0.028151 0
0.620847 0 0
1 0 0
1 0.93219 0
0.724669 0.456981 0
0.616802 0.264413 0
0.546412 0.132014 0
0.620847 0 0
0 0 0
1 0 0
1 1 0
0 1 0
0 0 0
0 0 0
1 0 0
1 1 0
0 1 0
0 0 0
0 0 0
0.00294702 0 0
0 0.00592034 0
0 0 0
0 0.0433412 0
0.816618 0.524387 0
1 0.637239 0
1 1 0
0 1 0
0 0.0433412 0
0 0 0
1 0 0
1 1 0
0 1 0
0 0 0
0 0 0
1 0 0
1 1 0
0 1 0
0 0 0
0 0 0
0.149945 0 0
0 0.0335609 0
0 0 0
0 0 0
1 0 0
1 1 0
0 1 0
0 0 0
0 0 0
0.037498 0 0
0 0.077125 0
0 0 0
0 0 0
1 0 0
1 1 0
0 1 0
0 0 0
0 0 0
0.0996211 0 0
1 0.58003 0
1 1 0
0 1 0
0 0 0
0 0 0
0.0374713 0 0
0 0.0704195 0
0 0 0
0 0 0
0.0940889 0 0
0.707697 0.352472 0
1 0.526962 0
1 1 0
0 1 0
0 0 0
0.0316566 0 0
1 0 0
1 1 0
0.826215 1 0
0.150065 0.15447 0
0.0316566 0 0
0 0.105842 0
0.214259 0.209565 0
0.949715 0.576702 0
1 0.602877 0
1 1 0
0 1 0
0 0.105842 0
0.117639 0 0
1 0 0
1 1 0
0.868007 1 0
0.117639 0 0
0 0 0
0.0823455 0 0
0.883691 0.563223 0
1 0.650844 0
1 1 0
0 1 0
0 0 0
0 0 0
0.0650144 0 0
1 0.578774 0
1 1 0
0 1 0
0 0 0
[...]
CELL_DATA 5701
FIELD FieldData 3
weight 1 5701 float
 0.996757 1.00307 0.996827 1.00957 1.0029 0.940849 1.00958 1.00324 1.00295 1.00312 0.934133 1.00917 1.0094 1.0031 1.00959 1.01573 1.01586 0.928132 1.01583 1.022 1.01566 0.9344 1.02195 1.01558 1.02163 1.02184 1.03427 0.959149 1.02798 1.00922 1.00954 1.00943 1.01577 1.01584 1.00919 1.01564 1.00916 0.94665 1.19706 1.19686 1.02182 1.01569 1.02201 1.02202 0.953341 1.19705 1.02793 0.965671 1.02805 1.0221 1.03455 1.02795 1.03416 1.02809 0.959501 1.19069 1.03454 1.02788 1.04067 1.19066 1.03441 1.03437 1.02794 0.940684 1.02831 1.19063 0.921693 1.04053 1.03413 1.19684 1.04691 0.928048 1.03433 1.04076 1.0344 1.19674 1.04677 0.953341 1.04067 1.19667 1.04672 1.05327 1.04075 1.05301 1.04682 0.946719 1.04666 1.05943 1.0531 1.17814 1.05943 1.05327 1.05938 0.934574 1.06544 1.18419 1.04671 0.903353 1.04061 1.1844 1.04071 1.05302 1.04695 0.915613 1.19086 1.05305 1.04696 1.04079 1.04058 0.90953 1.19038 1.04687 1.0467 1.17815 1.05327 0.903081 1.05917 1.17806 1.05337 1.17799 1.05325 0.921757 1.05913 1.17803 1.06555 1.17166 1.05954 1.05301 1.17811 0.909572 1.05943 1.05929 1.19071 1.06574 0.90311 1.18416 1.06558 1.07181 0.89702 1.19085 0.859407 1.19054 0.709417 0.877944 1.19064 0.890622 1.1844 0.865823 1.19085 1.18413 0.753136 1.18417 0.884535 1.19064 1.17817 0.915789 1.17799 0.740411 0.922109 1.17804 1.18435 1.1782 1.17817 0.90913 1.17824 1.18416 0.746993 1.18446 0.928301 1.18436 1.18444 1.18446 0.728257 0.915584 1.18462 1.19086 1.18439 0.709412 0.915629 1.18441 0.897039 0.703047 1.18427 1.18428 0.721653 1.18429 0.890461 1.18422 1.18425 0.728334 1.19079 1.17819 0.871711 1.19062 0.902925 0.746832 1.19044 0.909595 1.19676 0.734283 0.878045 1.1842 0.740491 0.734127 1.19693 0.897014 0.965558 0.978015 0.734483 1.19697 0.965434 0.978144 0.765856 0.971928 0.740586 0.965765 1.19081 0.740575 1.18428 0.959615 1.19042 0.953117 1.1906 1.1842 0.940692 0.959528 1.1904 0.959315 1.19692 1.19665 0.953245 1.19686 0.946741 1.19673 0.984554 0.978321 1.19684 0.996728 0.972014 0.971664 0.996833 1.19669 0.990554 0.752881 0.98433 1.19687 0.965511 0.753375 0.965808 1.19678 0.959151 0.971844 0.97169 0.965771 1.19707 0.77164 0.934306 1.19702 0.74664 0.921956 0.928226 0.759466 1.19062 0.915618 1.19701 0.947029 0.778352 1.18454 0.940507 1.19058 0.771826 0.934243 1.19085 1.19047 0.909172 0.784139 1.19041 0.903018 1.1908 0.784255 0.921884 1.18454 1.19064 0.765624 0.915398 0.759458 0.89074 1.19062 0.753031 0.959603 1.19711 0.778322 1.19056 0.940462 1.19672 0.928081 0.790726 1.19057 0.734325 0.78449 0.946675 1.19677 0.7344 0.940707 0.771895 0.734199 1.1968 0.721732 0.734156 0.934232 1.19683 0.921815 1.19687 0.928199 1.19697 0.740771 0.897053 0.740658 0.934483 0.746736 1.19694 0.740522 0.921759 1.19666 0.90936 1.19702 0.90312 1.19696 0.865717 0.759433 0.853086 0.765393 0.847051 1.19712 1.0719 1.06572 0.765865 0.846757 1.06557 1.07169 1.07796 0.859253 1.07815 0.772053 0.722026 1.07181 1.07185 0.853217 1.06568 1.07835 0.778255 1.07163 0.834289 1.09047 1.08418 0.834228 0.728299 1.08447 0.78431 1.09684 1.0905 0.821968 0.772076 1.08446 1.08435 1.07808 1.09044 0.815851 1.09054 0.75297 1.08442 1.06567 0.828 1.06581 1.05949 0.728203 1.05956 1.07164 0.840697 1.07189 1.06586 0.734178 1.06552 0.8221 1.05925 0.72814 1.05297 0.828229 0.778368 0.746764 1.07191 0.871905 1.06587 1.07796 0.746708 1.07187 0.859465 1.07796 0.746686 0.75923 0.87803 1.08415 0.877913 1.08439 1.07826 1.0779 0.846761 0.777988 1.08435 1.07188 0.871907 1.07206 1.09067 1.07821 0.765667 1.0782 0.84075 1.09663 1.10318 0.84081 1.10336 0.80926 1.11575 0.734372 1.10932 0.834521 1.10302 0.740621 0.803001 0.828148 1.10956 1.0968 0.840675 1.09695 1.09068 1.09696 0.740554 0.790874 1.10313 1.09674 0.734168 1.10326 1.12167 1.11543 1.1158 1.12173 1.11571 1.10943 1.10933 1.10918 1.11562 1.11543 0.834508 1.09058 0.759343 0.815395 1.09078 0.753075 1.0969 1.10337 1.10332 0.790537 1.09706 0.802927 0.759602 1.08414 1.0844 1.10303 0.740441 0.815566 1.09079 0.81556 1.10334 0.740868 1.09689 1.10943 0.796685 0.740697 0.802983 1.09676 1.10946 1.10924 1.11586 0.797085 1.10322 1.11558 0.796876 1.1155 1.09677 1.10928 0.747002 0.803038 1.10298 1.10306 0.7471 1.10922 1.05917 0.790489 1.05323 1.05328 1.05942 1.06582 0.815675 1.05927 1.06548 1.04663 1.04695 0.809496 0.746725 1.04065 0.765383 1.0595 1.05335 0.753038 1.0594 0.809215 1.0658 0.753221 1.07163 1.07209 0.7658 1.07806 1.078 0.76544 0.828007 1.06559 1.05301 1.06553 1.07178 0.834414 1.07207 1.05955 0.821957 1.02819 0.834602 0.753297 1.03413 1.02826 1.04688 1.04048 0.803069 1.03434 0.840795 1.01561 1.028 0.790435 1.02201 1.00922 1.03413 1.02808 0.846897 0.809198 1.0221 1.04705 1.04044 1.04667 1.05288 1.05333 0.784188 1.03433 0.846726 1.0406 1.02799 1.03458 0.821899 1.04058 1.04686 0.840522 1.02792 1.09058 0.765471 0.834144 1.08436 0.821786 1.07798 1.09044 0.828253 1.08458 0.815859 0.771878 1.09039 1.07827 1.06567 0.82208 1.078 0.809158 1.07196 0.815726 1.07796 1.09688 0.834518 1.09675 1.0908 1.10294 0.853101 0.772085 1.0971 1.08461 0.840761 1.08414 1.08425 0.765517 1.07826 0.790552 1.0906 1.08448 0.796682 1.07824 1.08423 1.05923 0.771774 1.05957 1.05311 0.796629 0.803296 1.06543 0.77801 1.072 1.06559 1.04697 1.03461 1.05933 0.784286 0.790518 1.04042 1.04087 0.778147 1.07182 0.884326 1.07188 0.80925 1.07166 1.07187 0.884586 1.06547 1.06577 0.796851 1.05333 0.871672 1.04691 1.05933 0.821893 1.05913 0.759388 1.05302 0.890391 0.803278 0.759226 1.12798 1.12795 1.1221 0.784477 0.765542 1.12202 1.12824 0.884437 0.803149 0.765853 1.13459 0.865598 1.12196 0.771924 1.12205 0.790695 0.878322 1.11552 1.12835 1.12171 1.12799 0.784257 0.89057 0.815579 0.765811 1.13452 0.865537 0.7655 0.809235 1.13415 1.13428 0.771932 1.14053 1.13434 0.828035 1.12209 0.771674 0.803034 0.853065 1.12813 0.771909 1.13413 1.14049 0.815849 1.12806 0.859236 0.778211 0.827908 0.846914 1.10949 0.777881 0.834433 1.1221 0.84701 1.12799 0.896649 1.12207 0.828237 1.1279 0.896805 1.11585 0.84068 1.12177 0.772073 1.10943 1.11562 0.840563 1.10933 1.12208 0.884549 0.846958 0.778057 1.10929 1.12807 1.11564 0.846627 0.77819 1.13434 1.12203 0.902894 0.790506 0.821923 1.13428 0.890639 0.784136 1.11573 1.12823 0.834217 0.903115 1.1155 0.790651 1.13438 0.828068 0.852998 1.12165 1.12813 1.14042 0.859216 0.821834 1.14675 1.1471 1.14051 0.840692 1.14702 0.840444 1.13424 1.14083 0.784504 1.14072 0.840657 0.865814 1.14057 1.13415 1.15295 0.784418 1.14691 1.15318 0.846948 1.14071 0.7782 1.15301 1.15293 1.15916 1.15317 0.784145 1.14667 1.14711 0.859532 1.14073 1.14697 0.790649 1.15297 0.815762 1.12825 1.14044 1.1346 0.797074 1.15315 1.14706 0.803123 1.12207 1.12818 1.13426 1.14076 0.834416 0.784344 1.14052 1.12797 1.14067 0.809375 1.14683 0.790472 1.1342 1.15914 0.796647 1.15324 0.790831 1.1408 1.14666 0.803191 1.14697 1.13437 1.15307 1.14674 1.14085 1.0969 0.778242 1.09693 1.10332 1.1096 0.765419 1.10295 1.10294 1.09086 1.09044 1.09074 0.765749 1.09666 1.09695 1.11542 0.78426 1.10945 0.765558 1.11541 0.78425 1.12186 1.11556 0.772003 0.772056 1.12163 1.10962 0.772081 1.10325 1.10947 0.765429 1.10332 1.11575 1.10305 1.09708 0.828143 0.772009 1.07791 1.07822 1.07803 0.821897 1.08423 1.08413 1.0904 0.796693 1.06539 1.05921 0.765729 1.06562 1.07211 1.06568 0.759145 0.828067 1.08425 1.06553 1.09087 0.77822 1.08417 1.09709 1.10945 1.10305 0.784208 1.09059 0.853109 1.09671 1.09043 0.771743 1.07194 1.08449 1.09692 1.07792 0.809259 1.09058 1.12805 1.13418 0.790573 1.122 1.12796 1.1344 1.12792 1.12176 1.10962 1.11544 1.11546 1.12179 1.13421 1.12823 1.14072 0.803357 1.14048 1.14064 1.12834 0.79673 1.12182 1.13426 1.11543 1.12807 1.13431 0.728231 0.784594 1.12197 1.10334 1.10957 1.1157 1.10961 1.10326 0.73443 1.10289 1.09062 0.753365 1.09669 0.728316 1.10941 0.796775 1.09674 0.753265 0.753265 1.1029 1.12189 1.10937 1.12789 1.11563 0.759255 0.790814 1.1154 0.778252 0.765794 0.815855 1.09702 0.765806 0.803042 0.75329 0.746727 1.10307 0.796693 1.12179 0.803263 0.753344 1.10916 0.809537 1.10939 0.759188 1.00304 0.99066 1.00925 0.777895 1.01573 0.821937 0.996692 1.00306 0.752982 0.978354 0.984175 0.978118 0.828173 0.746816 0.98446 0.990771 0.846657 0.978203 1.01578 0.840429 1.01574 0.777984 1.02803 1.02195 1.02211 0.997017 0.765799 0.797009 0.828314 0.996645 0.990828 1.00925 0.790565 0.834199 1.00333 0.809352 0.990813 0.76543 0.972051 0.797116 0.840821 0.771712 0.796655 0.952953 0.753072 0.809334 0.978071 0.803218 0.802879 0.784156 0.796956 0.790464 0.946735 0.815636 0.796839 0.79044 0.759422 0.81564 0.959469 0.803336 0.753311 0.802985 0.809623 0.928116 0.834164 0.802976 0.915689 0.815438 0.802957 0.915669 0.765469 0.771671 0.778229 0.772005 0.777945 0.784488 0.759215 0.828246 0.840704 0.822015 0.934282 0.834202 0.821771 0.83454 0.853267 0.834298 0.92807 0.828256 0.834552 0.921756 0.809424 0.85317 0.815485 0.984621 0.809568 0.865697 0.984601 0.821995 0.965779 0.865597 0.81542 0.815498 0.853148 0.953271 0.822009 0.990389 0.784241 0.959517 0.871946 0.784163 0.971892 0.772119 0.871704 0.771674 0.796955 0.765496 0.9405 0.790497 0.859559 0.77791 0.79705 0.865425 0.790679 0.934502 0.77197 0.765855 0.884526 0.940485 0.778155 0.890507 0.777941 0.896875 0.771907 0.947022 0.809166 0.78421 0.903083 0.802905 0.946702 0.77163 1.03439 1.0221 0.803317 0.896651 1.01574 1.02791 0.790584 1.02207 0.822016 1.01586 1.00957 0.78436 0.909356 0.815437 0.778222 1.00331 0.859165 0.81558 1.01555 0.878062 0.809212 0.871834 1.00924 0.796638 0.878143 0.790744 0.784516 1.00933 1.03451 0.790616 0.78451 0.890671 1.04672 0.778166 1.02194 1.02816 0.765653 0.784134 0.903314 1.05301 0.784475 1.04667 1.04038 0.790756 0.915777 0.77169 0.809422 0.884554 1.02168 0.772036 0.802993 1.0154 0.79043 0.909134 0.796869 1.03432 0.896895 1.02789 0.853098 0.927959 0.859549 0.921963 1.0033 0.796784 0.853313 0.796898 0.997109 0.809388 0.865786 0.790412 0.996906 0.809479 0.796998 1.00316 0.797097 0.821662 0.865399 0.765844 0.977911 0.815853 0.765618 0.86563 0.990431 0.815668 0.771817 0.859236 0.984262 0.827919 0.846863 0.846962 0.965436 0.828098 0.85948 0.953263 0.865749 0.871752 0.771986 0.971974 0.865503 0.771856 0.86538 0.871703 0.978215 0.778288 0.871664 0.959204 0.853212 0.777882 0.884147 0.952934 0.878357 0.871874 0.997091 0.872083 0.821742 0.990536 0.877938 0.828279 0.984168 0.821718 0.884339 1.02799 0.778208 0.8404 0.996981 0.890539 0.784587 0.965675 0.828356 0.972024 0.790395 0.890579 0.834197 0.784429 0.83427 0.959549 0.796948 0.878225 0.84712 0.978126 0.790626 0.859338 0.878223 0.872097 0.965598 0.853354 0.959427 0.884185 0.971835 0.87827 0.778175 0.890494 0.87204 0.909215 0.784587 0.89053 0.872071 0.78422 0.909199 0.884387 0.79084 0.890446 0.8904 0.896863 0.784246 0.890578 0.884405 0.790638 0.884458 0.909285 0.85322 0.896902 0.915671 0.852991 0.922081 0.890795 0.865429 0.915401 0.796724 0.859204 0.902911 0.903179 0.79052 0.934285 0.802908 0.859211 0.802955 0.797119 0.846698 0.928123 0.871943 0.809367 0.852921 0.940795 0.815496 0.859146 0.878342 0.865456 0.859185 0.79054 0.903031 0.853361 0.896984 0.878118 0.884578 0.871738 0.909507 0.871999 0.796858 0.878276 0.903097 0.796971 0.871918 0.915778 0.865537 0.803222 0.884504 0.796809 0.921668 0.803108 0.878292 0.928329 0.934151 0.796781 0.884461 0.921845 0.915785 0.803351 0.803141 0.947112 0.865543 0.915742 0.927936 0.871783 0.934573 0.946856 0.865434 0.959586 0.809318 0.909225 0.80955 0.878348 0.92821 0.934591 0.815624 0.87189 0.878214 0.915798 0.821852 0.87829 0.803257 0.946984 0.896848 0.903333 0.809208 0.872021 0.928222 0.809592 0.92196 0.89671 0.940669 0.903031 0.896845 0.952886 0.8782 0.884586 0.809319 0.909127 0.821676 0.959593 0.859541 0.909566 0.815531 0.96584 0.903197 0.821974 0.946954 0.815641 0.897047 0.815505 0.959354 0.903339 0.834197 0.815439 0.897109 0.846846 0.971903 0.903274 0.934603 0.821988 0.903002 0.940465 0.909501 0.822111 0.840624 0.922027 0.946769 0.915702 0.828257 0.92201 0.953118 0.815663 0.915548 0.828109 0.927912 0.934149 0.928295 0.94047 0.921658 0.821659 0.809532 0.909586 0.83418 0.934212 0.790672 0.790775 0.953196 0.915547 0.796921 0.796625 0.915603 0.965852 0.790764 0.921716 0.934521 0.928341 0.803241 0.977897 0.8971 0.796941 0.959503 0.890784 0.803124 0.797117 0.971762 0.803344 0.896825 0.796985 0.978334 0.903108 0.815611 0.971647 0.978138 0.971925 0.853106 0.909342 0.984276 0.809285 0.984487 0.990598 0.984352 0.821773 0.840798 0.909609 1.0032 1.00962 0.99057 1.0033 0.996785 0.896751 0.822072 0.990819 0.890439 0.996707 0.834135 0.815535 0.884294 0.984429 1.00935 0.828284 0.884175 0.865396 0.996858 1.00303 0.902978 0.821989 1.00937 1.02171 0.84667 1.01567 0.802998 1.00927 0.902945 1.01568 0.82792 0.959507 0.890474 0.815495 0.896839 0.971986 0.921831 0.809189 0.80951 0.809562 0.953088 0.915869 0.802911 0.80331 0.946878 0.915745 0.803091 0.809437 0.965551 0.928223 0.81576 0.821631 0.92201 0.984289 0.822089 0.928153 0.965529 0.809302 0.821719 0.990732 0.821843 0.809263 0.915609 0.990765 0.834374 0.915604 0.978274 0.940755 0.834209 0.909388 0.990843 0.827925 0.909292 0.828309 0.834416 0.953069 0.827887 0.921643 0.928144 0.915663 0.828116 0.959415 0.921825 0.971976 0.834142 0.934612 0.840659 0.965825 0.971934 0.846699 0.965816 0.940556 0.846686 0.98414 0.853202 0.834449 0.921871 0.996695 0.852994 0.834275 0.897116 0.978029 0.84062 0.840788 0.896831 1.00932 0.840537 0.847122 0.88445 0.990638 0.828331 0.834342 0.827975 0.890787 1.00303 0.828164 1.00333 0.903071 0.853306 1.00309 0.890462 0.834279 0.996766 1.02205 1.02807 0.947083 0.840448 1.02173 0.840711 0.953052 1.02192 1.03461 1.03416 0.847036 1.04081 0.865789 1.01585 0.853272 0.928279 0.859373 0.847023 1.00947 0.859343 1.02818 0.853265 1.02209 0.840817 0.953091 0.865565 0.840838 1.01559 0.871788 0.947085 1.04077 0.915421 1.03439 0.871739 0.909289 1.0406 1.04685 0.903141 0.865828 0.846855 1.03449 0.878083 1.04676 0.859255 1.04704 0.846867 0.922117 0.846769 0.840706 0.834609 0.909589 0.865861 0.852996 0.840776 0.884529 0.871633 0.859187 0.859247 0.853133 0.852994 0.852893 0.871712 0.840469 0.871922 0.846817 0.828027 0.834412 0.822074 0.853222 0.852876 0.840606 0.827903 0.859354 0.865811 0.859325 0.834556 0.859374 0.872108 0.859625 0.83446 0.890569 0.859343 0.83424 0.865544 0.846872 0.822008 0.865452 0.871826 0.809292 0.828066 0.809379 0.884254 0.802992 0.815764 0.896718 0.821724 0.815603 0.834578 0.822028 0.846839 0.865653 0.82187 0.840792 0.821664 0.709147 0.872053 0.815756 0.878354 0.846921 0.83459 0.859327 0.840625 0.815394 0.846884 0.840737 0.853154 0.840619 0.865678 0.846627 0.865482 0.847054 0.859158 0.865652 0.878024 0.853124 0.721689 0.853244 0.890477 0.859317 0.734543 0.89668 0.840739 0.884168 0.853295 0.834484 0.903232 0.828227 0.840863 0.909624 0.847028 0.915863 0.852951 0.83452 0.847106 0.840638 0.921764 0.828285 0.878089 0.90934 0.747028 0.821707 0.89085 0.746859 0.934573 0.877934 0.840397 0.740448 0.921959 0.828078 0.753327 0.897015 0.940559 0.828321 1.05322 1.05936 0.884157 0.978323 0.759321 1.04706 1.05915 0.890418 1.05298 0.884384 0.953148 1.04059 0.940489 0.87789 1.0405 0.92803 0.872122 0.740757 1.03452 0.959354 0.740469 0.884563 1.03423 0.971957 0.746669 0.890498 0.902979 0.753242 0.890768 1.04671 0.759553 0.91555 0.877918 0.752929 0.921829 0.765823 1.04055 0.927961 0.909545 0.90927 0.915432 1.04664 0.902942 1.07791 0.940526 0.896685 0.934307 1.05333 0.959281 0.903178 1.07199 0.977894 0.915425 1.08427 0.915722 1.05934 0.909326 0.971693 1.06582 0.915645 1.05306 0.978161 0.902954 0.853186 0.89682 0.88461 0.852941 0.896836 1.04068 0.859276 0.909518 0.85942 1.02809 0.90299 0.871712 0.890425 0.909276 1.05917 0.903161 0.865529 1.06542 0.915837 0.859186 1.0468 0.897077 1.01557 0.865536 0.90923 1.00923 0.859582 0.921747 1.00295 0.884461 0.865862 1.02171 0.75934 0.871717 1.00914 0.865796 0.759409 0.984247 0.871952 0.878092 0.977935 0.890577 0.859232 0.871662 0.878117 0.852886 0.890474 0.971772 0.765657 0.884431 0.859484 0.990751 0.915553 0.865685 0.984322 0.772061 0.921834 0.865508 1.03438 0.89684 0.865691 1.02176 0.903191 0.765568 1.01553 0.93432 0.878024 1.02826 0.92823 1.04071 0.878285 0.922037 1.00954 0.94041 0.884361 0.946644 0.996996 0.902965 0.77209 0.990784 0.934365 0.890842 0.778304 0.984245 0.928164 0.872011 0.778042 0.946855 0.997121 0.871985 0.777939 0.953102 1.00324 0.765569 0.871772 1.00337 0.98415 0.890717 0.777881 0.959419 0.99665 0.972026 0.884397 0.95298 1.07163 0.877903 0.92831 0.765458 1.07821 0.947113 0.878333 0.77193 0.952897 1.0717 0.784616 0.94084 0.784342 1.07825 0.959184 0.790454 1.09076 0.96553 0.778357 0.971969 1.08434 0.765726 0.965469 0.772011 1.08439 0.990499 0.721791 1.0593 0.990445 1.05333 0.978174 0.778113 1.07199 0.978344 0.790422 1.0596 0.997095 0.72791 0.796902 1.05305 0.965811 0.790668 1.10336 0.80313 0.984473 1.09695 0.796826 0.996725 0.734336 0.797081 1.09039 0.984361 0.734333 0.790714 0.990752 1.10318 1.0031 0.752985 1.09664 1.01574 1.09074 0.753136 1.00288 0.797104 0.740687 1.07807 0.802978 0.997095 0.734212 1.06581 0.803177 1.0095 0.740766 0.809224 1.05308 0.803063 0.984305 0.746821 1.07806 0.803126 0.75915 0.997084 1.08424 0.809508 0.990715 1.07208 0.809572 1.00327 1.0783 0.996876 1.04665 1.00925 1.03448 1.01545 1.01551 0.822043 1.02173 0.809279 1.00303 1.0408 0.784189 1.00918 1.03427 0.77181 1.01539 0.777938 1.00915 1.01581 0.79707 1.02826 1.00335 1.02208 0.734419 1.0096 1.02821 1.02207 0.790824 0.746747 1.03428 1.01558 0.784416 0.734473 1.02212 0.97833 0.784162 0.740851 1.04062 0.790476 1.06585 0.740651 0.809408 1.05956 1.04684 1.0343 1.05317 0.784178 1.05953 1.05324 1.04698 1.0468 1.05306 1.05914 1.06564 1.06576 1.05918 1.04063 0.759423 1.03454 0.771835 1.04699 1.02834 1.05332 0.765568 1.03456 0.990509 0.796938 1.04062 1.02203 0.765793 1.06542 0.790731 1.02802 1.04704 0.777999 0.796677 1.07185 0.771838 1.07809 1.02212 0.81581 0.771677 1.07197 0.965756 0.759303 1.07797 0.809509 0.94682 1.08416 1.00308 0.934505 0.76555 1.02184 0.765637 0.978089 1.02169 0.759308 0.809471 1.0092 0.80321 0.959268 0.784145 1.01556 0.815716 0.915745 0.778033 1.02163 0.821698 0.921837 0.778248 0.821803 0.890804 0.790768 1.02827 0.940755 0.790639 0.815709 1.02814 0.909507 0.784326 1.04054 1.0344 0.928304 0.784436 1.02807 0.896957 0.771915 1.05309 0.803169 0.965592 0.771731 1.03444 0.815452 0.75919 0.990541 1.02811 0.821685 0.765633 0.940384 0.834226 0.953043 1.03416 0.7843 0.827922 1.01582 0.971898 0.778205 0.8342 1.00937 0.978021 0.777905 1.04673 0.953243 0.784495 1.04682 0.934528 0.740718 1.05946 0.909355 0.74668 0.915582 0.746698 1.04084 0.946697 0.746911 1.05337 0.734152 0.927885 0.752941 1.05325 0.921674 0.752891 0.90935 1.05304 0.728143 0.87196 1.04085 0.740561 1.07795 0.746681 0.878084 0.747014 1.05961 0.865694 0.740729 1.05916 0.872083 1.07209 0.884219 1.06571 0.872023 1.07195 0.740392 1.08433 0.877933 1.09685 0.734149 1.08418 0.884203 1.09065 0.765551 1.09073 0.859303 0.771945 1.06571 1.07182 0.765623 1.07189 0.834172 0.784126 1.06565 0.84673 0.75914 1.07812 0.840693 0.759297 1.08434 0.840836 0.753041 1.07837 0.8846 0.771713 1.1032 0.896893 0.747042 0.765409 1.0971 0.759545 1.08423 0.890447 0.777991 0.765739 1.09055 1.00952 0.778156 0.878191 1.01574 1.02168 1.01577 0.765866 0.903255 1.01549 0.771933 1.02811 1.02831 0.890454 1.03429 1.04058 1.02827 0.778292 1.03418 0.890504 1.04039 1.02192 1.02837 0.77201 1.02798 0.703344 0.853047 1.03455 1.02795 1.03444 0.746785 0.846783 1.04075 1.03434 1.04065 1.04043 0.846892 0.727947 1.04712 0.753306 1.05314 0.865758 1.04709 0.853026 0.765453 1.03435 1.05933 0.853372 1.04684 1.04688 0.734523 1.04047 0.984457 1.04702 0.771885 1.05326 0.728303 1.05304 1.05934 0.959255 1.04711 0.765862 1.06538 1.05956 0.953016 1.0658 0.703292 1.04699 1.05308 1.05328 0.965426 1.05331 1.06538 1.05962 0.984135 0.721947 1.05959 1.06558 1.06539 0.965571 1.07196 1.0721 0.715789 1.04076 0.971765 1.04696 1.04055 1.05309 0.934172 1.04705 0.740587 1.05324 0.928035 1.05292 1.06538 0.721658 0.940455 1.05945 1.05937 0.734589 0.940598 1.0721 1.07201 1.05302 0.765694 1.04668 0.934429 1.05947 1.06564 1.05296 0.746684 0.990768 1.05915 1.05917 1.06585 0.978175 1.05957 0.753252 1.0779 1.07172