# vtk DataFile Version 3.0
vtk output
ASCII
DATASET UNSTRUCTURED_GRID
POINTS 44491 float
0.00939797 0.0128055 0
0.0102496 0.0118463 0
0.0205476 0.0131266 0
0.022694 0.0151418 0
0.0198572 0.0246858 0
0.011022 0.0248204 0
0.00939797 0.0128055 0
0.00994888 0 0
0.0214555 0 0
0.0205476 0.0131266 0
0.0102496 0.0118463 0
0.00994888 0 0
0 0.01413 0
0.00939797 0.0128055 0
0.011022 0.0248204 0
0.00820693 0.0269968 0
0 0.0264703 0
0 0.01413 0
0 0 0
0.00994888 0 0
0.0102496 0.0118463 0
0.00939797 0.0128055 0
0 0.01413 0
0 0 0
0.0205476 0.0131266 0
0.0214555 0 0
0.0293952 0 0
0.0314089 0.0106034 0
0.0292414 0.0139751 0
0.022694 0.0151418 0
0.0205476 0.0131266 0
0.00820693 0.0269968 0
0.011022 0.0248204 0
0.0198572 0.0246858 0
0.022816 0.0278244 0
0.0227566 0.029758 0
0.0184809 0.0365071 0
0.0107438 0.036119 0
0.00820693 0.0269968 0
0.0227566 0.029758 0
0.022816 0.0278244 0
0.0353156 0.0241692 0
0.0353737 0.0241906 0
0.038294 0.0343839 0
0.0338277 0.0395914 0
0.0227566 0.029758 0
0.0198572 0.0246858 0
0.022694 0.0151418 0
0.0292414 0.0139751 0
0.0353156 0.0241692 0
0.022816 0.0278244 0
0.0198572 0.0246858 0
0.0427582 0 0
0.0557302 0 0
0.0520549 0.0118813 0
0.043926 0.0125912 0
0.0428262 0.0113398 0
0.0427582 0 0
0.0293952 0 0
0.0427582 0 0
0.0428262 0.0113398 0
0.0314089 0.0106034 0
0.0293952 0 0
0.0292414 0.0139751 0
0.0314089 0.0106034 0
0.0428262 0.0113398 0
0.043926 0.0125912 0
0.0421495 0.0209562 0
0.0353737 0.0241906 0
0.0353156 0.0241692 0
0.0292414 0.0139751 0
0.0421495 0.0209562 0
0.043926 0.0125912 0
0.0520549 0.0118813 0
0.0552428 0.0150914 0
0.0532986 0.0256963 0
0.0508164 0.026072 0
0.0421495 0.0209562 0
0.466109 0.444248 0
0.476951 0.445628 0
0.479885 0.455699 0
0.479399 0.456376 0
0.467376 0.459046 0
0.464008 0.4544 0
0.466109 0.444248 0
0.0520549 0.0118813 0
0.0557302 0 0
0.0620434 0 0
0.0641263 0.0136923 0
0.0552428 0.0150914 0
0.0520549 0.0118813 0
0.89488 0.482669 0
0.896976 0.481102 0
0.905343 0.482637 0
0.907939 0.492299 0
0.906306 0.494979 0
0.900244 0.495905 0
0.894348 0.492798 0
0.89488 0.482669 0
0.038294 0.0343839 0
0.0353737 0.0241906 0
0.0421495 0.0209562 0
0.0508164 0.026072 0
0.0442787 0.0350934 0
0.038294 0.0343839 0
0.0544635 0.0263819 0
0.0532986 0.0256963 0
0.0552428 0.0150914 0
0.0641263 0.0136923 0
0.0656345 0.0145633 0
0.0668616 0.02481 0
0.0544635 0.0263819 0
0.492153 0.444246 0
0.503766 0.447878 0
0.505131 0.451779 0
0.501448 0.45861 0
0.494152 0.459838 0
0.488806 0.454332 0
0.492153 0.444246 0
0.886803 0.496334 0
0.894348 0.492798 0
0.900244 0.495905 0
0.897063 0.509188 0
0.886305 0.504706 0
0.886803 0.496334 0
0.0581553 0.0377592 0
0.0544635 0.0263819 0
0.0668616 0.02481 0
0.0683765 0.0259965 0
0.0665988 0.0373239 0
0.0581553 0.0377592 0
0.467376 0.459046 0
0.479399 0.456376 0
0.48135 0.469379 0
0.470998 0.472004 0
0.465993 0.465464 0
0.467376 0.459046 0
0 0.0264703 0
0.00820693 0.0269968 0
0.0107438 0.036119 0
0.00706133 0.0412192 0
0 0.041554 0
0 0.0264703 0
0.0124669 0.0492376 0
0.00706133 0.0412192 0
0.0107438 0.036119 0
0.0184809 0.0365071 0
0.0227319 0.0461483 0
0.0124669 0.0492376 0
0.91213 0.476442 0
0.921427 0.487157 0
0.918738 0.490604 0
0.907939 0.492299 0
0.905343 0.482637 0
0.91213 0.476442 0
0.479885 0.455699 0
0.488806 0.454332 0
0.494152 0.459838 0
0.491316 0.468218 0
0.483204 0.47046 0
0.48135 0.469379 0
0.479399 0.456376 0
0.479885 0.455699 0
0.0184809 0.0365071 0
0.0227566 0.029758 0
0.0338277 0.0395914 0
0.0335134 0.0409226 0
0.0234049 0.0464463 0
0.0227319 0.0461483 0
0.0184809 0.0365071 0
0 0.0531786 0
0.0104047 0.0553481 0
0.0121992 0.0593765 0
0.00745477 0.0669479 0
0 0.067988 0
0 0.0531786 0
0.91213 0.476442 0
0.912426 0.47522 0
0.916485 0.471116 0
0.928001 0.473851 0
0.928439 0.474285 0
0.923731 0.486466 0
0.921427 0.487157 0
0.91213 0.476442 0
0.491316 0.468218 0
0.494152 0.459838 0
0.501448 0.45861 0
0.508367 0.468212 0
0.508035 0.470063 0
0.497859 0.474524 0
0.491316 0.468218 0
0 0.041554 0
0.00706133 0.0412192 0
0.0124669 0.0492376 0
0.0104047 0.0553481 0
0 0.0531786 0
0 0.041554 0
0.0255956 0.0530221 0
0.0234049 0.0464463 0
0.0335134 0.0409226 0
0.0395825 0.0490838 0
0.0388188 0.0506809 0
0.0290002 0.05524 0
0.0255956 0.0530221 0
0.923731 0.486466 0
0.928439 0.474285 0
0.932669 0.474747 0
0.938673 0.483189 0
0.937931 0.486412 0
0.930174 0.489954 0
0.923731 0.486466 0
0.442722 0.476241 0
0.444271 0.470651 0
0.453092 0.467463 0
0.455341 0.468593 0
0.458826 0.48061 0
0.449449 0.483752 0
0.442722 0.476241 0
0.0104047 0.0553481 0
0.0124669 0.0492376 0
0.0227319 0.0461483 0
0.0234049 0.0464463 0
0.0255956 0.0530221 0
0.0158062 0.0601523 0
0.0121992 0.0593765 0
0.0104047 0.0553481 0
0.435149 0.480038 0
0.442722 0.476241 0
0.449449 0.483752 0
0.446867 0.491754 0
0.440219 0.493038 0
0.434729 0.488311 0
0.435149 0.480038 0
0.907939 0.492299 0
0.918738 0.490604 0
0.921283 0.502033 0
0.913643 0.505809 0
0.911452 0.50532 0
0.906306 0.494979 0
0.907939 0.492299 0
0.469135 0.478731 0
0.476665 0.485504 0
0.475253 0.492438 0
0.467781 0.495035 0
0.46261 0.491718 0
0.461558 0.481877 0
0.469135 0.478731 0
0.0158062 0.0601523 0
0.0255956 0.0530221 0
0.0290002 0.05524 0
0.030757 0.064501 0
0.0284195 0.066463 0
0.0220874 0.0675313 0
0.0158062 0.0601523 0
0.921427 0.487157 0
0.923731 0.486466 0
0.930174 0.489954 0
0.930983 0.500445 0
0.925951 0.503371 0
0.921283 0.502033 0
0.918738 0.490604 0
0.921427 0.487157 0
0.437078 0.502306 0
0.440219 0.493038 0
0.446867 0.491754 0
0.452475 0.496778 0
0.452706 0.502897 0
0.443851 0.508038 0
0.437078 0.502306 0
0.942678 0.445264 0
0.944913 0.443113 0
0.953887 0.443624 0
0.957616 0.446738 0
0.95652 0.452831 0
0.951182 0.456126 0
0.94464 0.453985 0
0.942678 0.445264 0
0.452393 0.955628 0
0.460493 0.951616 0
0.468492 0.958841 0
0.466297 0.965518 0
0.459581 0.967961 0
0.452393 0.955628 0
0.449449 0.483752 0
0.458826 0.48061 0
0.461558 0.481877 0
0.46261 0.491718 0
0.452475 0.496778 0
0.446867 0.491754 0
0.449449 0.483752 0
0.0338277 0.0395914 0
0.038294 0.0343839 0
0.0442787 0.0350934 0
0.0477416 0.0404891 0
0.0441414 0.0477296 0
0.0395825 0.0490838 0
0.0335134 0.0409226 0
0.0338277 0.0395914 0
0.931357 0.449247 0
0.93574 0.445189 0
0.942678 0.445264 0
0.94464 0.453985 0
0.937553 0.459659 0
0.931571 0.457647 0
0.931357 0.449247 0
0.0442787 0.0350934 0
0.0508164 0.026072 0
0.0532986 0.0256963 0
0.0544635 0.0263819 0
0.0581553 0.0377592 0
0.0561424 0.0400793 0
0.0477416 0.0404891 0
0.0442787 0.0350934 0
0.46261 0.491718 0
0.467781 0.495035 0
0.466502 0.505471 0
0.458304 0.507196 0
0.452706 0.502897 0
0.452475 0.496778 0
0.46261 0.491718 0
0.469068 0.943513 0
0.4735 0.937825 0
0.480025 0.938145 0
0.484951 0.944287 0
0.479746 0.953229 0
0.477303 0.954025 0
0.469068 0.943513 0
0.957616 0.446738 0
0.965106 0.443549 0
0.970022 0.447477 0
0.968186 0.457985 0
0.963991 0.45886 0
0.95652 0.452831 0
0.957616 0.446738 0
0.0587877 0.0503776 0
0.0561424 0.0400793 0
0.0581553 0.0377592 0
0.0665988 0.0373239 0
0.0696951 0.040273 0
0.0645378 0.0520935 0
0.0587877 0.0503776 0
0.48135 0.469379 0
0.483204 0.47046 0
0.484346 0.482164 0
0.476665 0.485504 0
0.469135 0.478731 0
0.470998 0.472004 0
0.48135 0.469379 0
0.94464 0.453985 0
0.951182 0.456126 0
0.950884 0.465772 0
0.945118 0.46884 0
0.940888 0.467777 0
0.937553 0.459659 0
0.94464 0.453985 0
0.485516 0.9282 0
0.490477 0.927784 0
0.494824 0.936689 0
0.488816 0.943719 0
0.484951 0.944287 0
0.480025 0.938145 0
0.485516 0.9282 0
0.0388188 0.0506809 0
0.0395825 0.0490838 0
0.0441414 0.0477296 0
0.05227 0.0540401 0
0.0510423 0.0607851 0
0.0421521 0.062982 0
0.0388188 0.0506809 0
0.95652 0.452831 0
0.963991 0.45886 0
0.959392 0.469324 0
0.950884 0.465772 0
0.951182 0.456126 0
0.95652 0.452831 0
0.0290002 0.05524 0
0.0388188 0.0506809 0
0.0421521 0.062982 0
0.0401763 0.0655785 0
0.030757 0.064501 0
0.0290002 0.05524 0
0.488816 0.943719 0
0.494824 0.936689 0
0.502965 0.938774 0
0.505062 0.944414 0
0.502202 0.950034 0
0.49725 0.952224 0
0.488816 0.943719 0
0.489765 0.48472 0
0.496827 0.480506 0
0.506277 0.487177 0
0.503853 0.49372 0
0.496247 0.496388 0
0.491031 0.493134 0
0.489765 0.48472 0
0.974165 0.433706 0
0.979336 0.439891 0
0.977564 0.446398 0
0.970022 0.447477 0
0.965106 0.443549 0
0.966308 0.436916 0
0.974165 0.433706 0
0.0441414 0.0477296 0
0.0477416 0.0404891 0
0.0561424 0.0400793 0
0.0587877 0.0503776 0
0.05227 0.0540401 0
0.0441414 0.0477296 0
0.479746 0.953229 0
0.487645 0.958442 0
0.487891 0.969972 0
0.485107 0.971531 0
0.479915 0.971219 0
0.476215 0.955438 0
0.477303 0.954025 0
0.479746 0.953229 0
0.483204 0.47046 0
0.491316 0.468218 0
0.497859 0.474524 0
0.496827 0.480506 0
0.489765 0.48472 0
0.484346 0.482164 0
0.483204 0.47046 0
0.979336 0.439891 0
0.988762 0.437392 0
0.991854 0.440487 0
0.989708 0.449793 0
0.981727 0.450588 0
0.977564 0.446398 0
0.979336 0.439891 0
0.0562415 0.065906 0
0.0510423 0.0607851 0
0.05227 0.0540401 0
0.0587877 0.0503776 0
0.0645378 0.0520935 0
0.064765 0.0524226 0
0.0594753 0.065889 0
0.0562415 0.065906 0
0.991854 0.440487 0
1 0.439702 0
1 0.456269 0
0.995353 0.45588 0
0.989708 0.449793 0
0.991854 0.440487 0
0.466297 0.965518 0
0.468492 0.958841 0
0.476215 0.955438 0
0.479915 0.971219 0
0.474612 0.973894 0
0.466297 0.965518 0
0.968186 0.457985 0
0.970022 0.447477 0
0.977564 0.446398 0
0.981727 0.450588 0
0.980067 0.457274 0
0.972338 0.460643 0
0.968186 0.457985 0
0.484951 0.944287 0
0.488816 0.943719 0
0.49725 0.952224 0
0.495752 0.955662 0
0.487645 0.958442 0
0.479746 0.953229 0
0.484951 0.944287 0
0.959392 0.469324 0
0.963991 0.45886 0
0.968186 0.457985 0
0.972338 0.460643 0
0.973654 0.468936 0
0.968045 0.472754 0
0.959595 0.469763 0
0.959392 0.469324 0
0.972338 0.460643 0
0.980067 0.457274 0
0.987934 0.464258 0
0.987914 0.464793 0
0.979657 0.471507 0
0.973654 0.468936 0
0.972338 0.460643 0
0.487645 0.958442 0
0.495752 0.955662 0
0.501718 0.96878 0
0.498036 0.970997 0
0.487891 0.969972 0
0.487645 0.958442 0
0.987934 0.464258 0
0.995353 0.45588 0
1 0.456269 0
1 0.47148 0
0.994645 0.471748 0
0.987914 0.464793 0
0.987934 0.464258 0
0.441451 0.969221 0
0.443788 0.967092 0
[...]
CELL_DATA 6400
FIELD FieldData 3
weight 1 6400 float
 0.0528941 0.0528766 0.0528147 0.0527736 0.0529332 0.0529308 0.0530475 0.0529842 0.0530895 0.0530213 0.0530358 0.0531222 0.0548558 0.0531622 0.0531896 0.0531112 0.0532059 0.0548638 0.0531862 0.0532533 0.0547996 0.052849 0.0529654 0.0531267 0.0548125 0.0530335 0.0529126 0.053095 0.054801 0.0528997 0.0530937 0.0529968 0.0547265 0.0530095 0.0546753 0.0530581 0.054678 0.0530719 0.0529941 0.0545956 0.0530178 0.0505547 0.0546693 0.0531387 0.053094 0.0531953 0.0546208 0.050724 0.0528909 0.0532988 0.0547345 0.0530001 0.0508134 0.0532155 0.0529163 0.0531522 0.0507316 0.0546855 0.0528749 0.0532433 0.0505388 0.0547489 0.0527828 0.0533095 0.0526835 0.0505098 0.052816 0.0506582 0.0528204 0.0527463 0.0505405 0.0526075 0.050393 0.0546179 0.0527209 0.0503006 0.052962 0.0504006 0.05467 0.050146 0.0529007 0.0501682 0.0528044 0.0546219 0.050277 0.0529197 0.0548486 0.0503232 0.0528835 0.0548859 0.0503454 0.0548363 0.0526731 0.0501842 0.0549013 0.052794 0.0501905 0.0549343 0.0501807 0.052776 0.0549607 0.0549196 0.0527266 0.0548475 0.0548884 0.0526171 0.0546167 0.0548294 0.0525456 0.0549394 0.0545822 0.0526483 0.0549303 0.0548921 0.0526706 0.0545972 0.054886 0.0525687 0.0550195 0.0544751 0.0549776 0.0525397 0.0550025 0.0524878 0.0545415 0.0550176 0.0550765 0.0524352 0.0544699 0.0545127 0.0545144 0.05456 0.0544422 0.0545009 0.0544008 0.0550522 0.0544064 0.0524951 0.0543186 0.0550788 0.0523781 0.0543152 0.0549772 0.0543678 0.0549839 0.0525298 0.0549701 0.0544492 0.0525845 0.0550502 0.0543532 0.0522837 0.055025 0.0544073 0.0524069 0.0550234 0.0542958 0.0548236 0.0524484 0.0548534 0.0542568 0.0548055 0.0526448 0.0548373 0.054308 0.0547647 0.0528496 0.0549278 0.0545333 0.0548852 0.0544507 0.0527619 0.0548793 0.0549165 0.0525235 0.0548016 0.0545274 0.0548298 0.0525965 0.0545034 0.0547299 0.0547603 0.0527226 0.0544555 0.0548561 0.0544171 0.0527491 0.0548983 0.0548013 0.0543645 0.0521891 0.0548183 0.0522953 0.0549564 0.0544906 0.0549752 0.052406 0.0549393 0.052348 0.0544454 0.0549981 0.0550224 0.0522256 0.0544166 0.0549028 0.0520983 0.0548591 0.0543815 0.0522825 0.0548976 0.0543631 0.0522371 0.0549406 0.0543201 0.0549809 0.0524578 0.0542682 0.054942 0.0526411 0.0542347 0.0551193 0.0542685 0.0525472 0.0551275 0.0543289 0.0523771 0.0551031 0.0542463 0.0551501 0.0524939 0.054302 0.0551566 0.0524487 0.054182 0.055183 0.0528396 0.0550949 0.0541548 0.052998 0.0550871 0.0542037 0.0550698 0.055116 0.0530074 0.0551558 0.0542239 0.0551281 0.0542243 0.052798 0.055201 0.054107 0.0552133 0.0528895 0.0551811 0.0529061 0.054158 0.0552265 0.0540877 0.0531183 0.0552486 0.0541639 0.0531436 0.0552414 0.0541497 0.0551969 0.054185 0.0551618 0.0532436 0.0551827 0.0541234 0.0530359 0.0552356 0.0540777 0.0552113 0.0529969 0.0540353 0.055216 0.0531372 0.0550547 0.0540494 0.0550733 0.0526302 0.0539637 0.0550355 0.05277 0.0551338 0.054019 0.0551043 0.0526954 0.0539282 0.0551099 0.0528575 0.0550788 0.0550409 0.0538435 0.0525638 0.0549919 0.0538466 0.0526618 0.0549667 0.0540154 0.0550139 0.0530841 0.0539792 0.0550654 0.0539164 0.0529606 0.0527993 0.0550505 0.0538244 0.0551643 0.0527923 0.0538805 0.0551711 0.0529361 0.0532761 0.0551373 0.0538274 0.0551367 0.0532727 0.0529122 0.0541958 0.0552056 0.053215 0.0521123 0.0533642 0.0541747 0.0520102 0.0551963 0.0533658 0.0541481 0.0521367 0.05517 0.054005 0.0533272 0.0520128 0.0551048 0.054105 0.0534618 0.0519227 0.0550865 0.0539805 0.0520739 0.0533685 0.0540899 0.0550495 0.052194 0.0535011 0.0540477 0.0551301 0.053439 0.0523452 0.0540979 0.0535648 0.0523004 0.0551238 0.0540407 0.0535915 0.0524166 0.0550872 0.0539934 0.0535651 0.0546963 0.0521586 0.0534712 0.0547069 0.0539409 0.0522743 0.0546542 0.0539153 0.0536816 0.0523139 0.0547534 0.0539415 0.0533732 0.0519173 0.0547653 0.0538724 0.0534269 0.0518119 0.0547305 0.0534706 0.0538273 0.0519831 0.0546615 0.0546101 0.0518008 0.053531 0.0537671 0.0516746 0.0545759 0.0534678 0.053817 0.0545585 0.0517303 0.0533837 0.0538456 0.0546937 0.0519071 0.0535438 0.0546473 0.0539399 0.0518276 0.0546221 0.0535571 0.0538881 0.0521634 0.0548306 0.0536522 0.0520182 0.0537489 0.0548627 0.0536248 0.0521598 0.0548095 0.0536952 0.0536215 0.0519754 0.054795 0.0537877 0.0537177 0.0548742 0.0518934 0.0543747 0.0537413 0.0521642 0.0549148 0.0530162 0.054433 0.0520503 0.0548629 0.0529497 0.0543366 0.054757 0.0525412 0.0531259 0.0547054 0.0525931 0.0530471 0.0543304 0.0547136 0.0524324 0.0529892 0.0547727 0.0542445 0.0531181 0.052414 0.0548084 0.0542896 0.0531921 0.052554 0.0547504 0.0543567 0.0532643 0.0544929 0.0528147 0.0531819 0.0542738 0.0544647 0.0527122 0.0544897 0.054252 0.0533564 0.0545783 0.0528555 0.0546448 0.0532598 0.0525934 0.0543212 0.0545896 0.0533166 0.0527137 0.0541882 0.0545375 0.0533492 0.0527844 0.0542099 0.0545305 0.0534133 0.0526688 0.0543931 0.0542514 0.0530349 0.0523364 0.05442 0.0530449 0.0542124 0.0523024 0.0531869 0.0541492 0.0543466 0.0524454 0.0531436 0.0541348 0.0542909 0.0531207 0.0522134 0.0540657 0.0544708 0.0530547 0.0541523 0.0523998 0.0544784 0.0532437 0.0541136 0.0523243 0.0543934 0.0532099 0.054085 0.0543948 0.0525738 0.0533096 0.0540455 0.054658 0.0539887 0.052506 0.0545913 0.0541846 0.0532582 0.0526682 0.0546474 0.0542145 0.0534699 0.0546998 0.0523658 0.0541226 0.0533748 0.0547085 0.0525235 0.0541321 0.0533937 0.0546652 0.0540688 0.0525983 0.0545339 0.0533117 0.054075 0.0544645 0.0533544 0.0534975 0.0544703 0.0534038 0.0534219 0.0540662 0.0545988 0.0534403 0.0532515 0.0546062 0.0539726 0.0535223 0.0532282 0.0545478 0.0540193 0.0535809 0.0545434 0.0533314 0.0535539 0.0538874 0.0534933 0.0549259 0.0534657 0.0539853 0.0536246 0.0549778 0.0540159 0.0536611 0.054915 0.0540364 0.0539637 0.0537062 0.055016 0.0539585 0.0549585 0.0536725 0.0549144 0.0539154 0.0537913 0.0549559 0.053894 0.0548584 0.0537172 0.0539268 0.0538697 0.0548639 0.0537613 0.0538258 0.0548092 0.0538592 0.053803 0.054759 0.0538286 0.0537618 0.0548053 0.0549143 0.0535106 0.0540674 0.0548603 0.0536002 0.0541072 0.0548766 0.053683 0.0540046 0.0550057 0.0539118 0.0535976 0.0550064 0.0538487 0.053557 0.053956 0.0550505 0.0536516 0.0539427 0.0539773 0.0550842 0.0537146 0.0537864 0.0550381 0.05496 0.0538786 0.0537598 0.0549157 0.0538797 0.0539097 0.0548962 0.0538526 0.0538281 0.0549954 0.053847 0.0549496 0.0538461 0.053796 0.0549474 0.0537539 0.0537509 0.0547476 0.0536841 0.0539176 0.0547142 0.0537361 0.0536658 0.0537815 0.0536534 0.0547897 0.0536669 0.0537742 0.0537118 0.0547615 0.0537302 0.054653 0.0536154 0.0537458 0.0535332 0.053778 0.054566 0.0535979 0.0538347 0.0545956 0.0538103 0.0536523 0.0538869 0.0545368 0.0538455 0.0538419 0.0546996 0.0539544 0.0537594 0.0536159 0.0547336 0.0539616 0.0537435 0.0546402 0.0539019 0.0534131 0.053626 0.0539847 0.054622 0.0536846 0.0535115 0.0539406 0.0548266 0.053777 0.0540474 0.0535434 0.0548547 0.0537585 0.0547903 0.0536533 0.0531109 0.0538845 0.0549041 0.0536892 0.0531978 0.0538339 0.0536727 0.0532755 0.0548722 0.0537985 0.0532871 0.0548175 0.0535777 0.0538479 0.0547507 0.05314 0.0536149 0.0538794 0.0546807 0.0535848 0.053033 0.053946 0.0546499 0.0536553 0.0539213 0.0531012 0.0547165 0.0535368 0.0532089 0.0539791 0.0547745 0.0535323 0.0540821 0.0533881 0.0546603 0.0540278 0.0534398 0.0534097 0.0539997 0.0547198 0.0532409 0.053473 0.0541174 0.0552794 0.0540625 0.0533169 0.053541 0.054095 0.0552667 0.0533644 0.0535038 0.0540337 0.0552613 0.054025 0.0534378 0.0533866 0.0552881 0.0541579 0.0540716 0.0552815 0.0533654 0.0537478 0.0552653 0.0541175 0.0534725 0.0537594 0.0552437 0.0541719 0.0533356 0.0542242 0.0535675 0.0552256 0.0541943 0.055252 0.0537605 0.0536484 0.0541381 0.0552866 0.0542498 0.0552732 0.0537421 0.0537496 0.054282 0.05531 0.0536394 0.0536879 0.0552988 0.0542307 0.053856 0.0542869 0.0553396 0.0535849 0.0538463 0.0543586 0.0536588 0.0553255 0.0553263 0.0535788 0.0539507 0.0543385 0.0553215 0.0541558 0.0553082 0.0536473 0.0537586 0.0542023 0.0552669 0.0537266 0.053801 0.0552934 0.0541837 0.0552933 0.053678 0.0542478 0.0538961 0.0553371 0.0542947 0.0537505 0.0553155 0.0535194 0.0542633 0.0536678 0.0553196 0.0535187 0.0543036 0.0536041 0.0552275 0.0536279 0.05434 0.0535508 0.0551986 0.0534531 0.0543654 0.0552461 0.053498 0.0535711 0.0552408 0.0543894 0.0534206 0.0536858 0.0552175 0.0544302 0.0537432 0.0534145 0.0551659 0.0551917 0.0533338 0.0544778 0.0538413 0.0551607 0.0534979 0.0539117 0.0536496 0.0534645 0.0551192 0.0538373 0.0536533 0.0533427 0.0551764 0.0539557 0.0533907 0.0551999 0.0529853 0.053919 0.0533971 0.0530059 0.0551534 0.0540331 0.0531207 0.0552655 0.053733 0.0539676 0.055234 0.0529042 0.0537128 0.0540887 0.0552946 0.0528933 0.053641 0.0540215 0.0530276 0.0552872 0.0535632 0.0541689 0.055259 0.0531449 0.0536024 0.0552639 0.0541487 0.0535424 0.0532639 0.0552003 0.0541093 0.0552371 0.0530032 0.0536693 0.0540984 0.0530862 0.0551767 0.0542511 0.0535661 0.0552364 0.053161 0.0541766 0.0536415 0.0551966 0.0539841 0.0527965 0.0535863 0.0540562 0.0527548 0.0553676 0.0535116 0.0540354 0.052885 0.0553515 0.0535159 0.0539847 0.0553546 0.0526447 0.0534421 0.0540519 0.0553422 0.0534662 0.0527578 0.0541183 0.0553533 0.0534275 0.0527789 0.0541855 0.0534456 0.0553621 0.0528816 0.0553621 0.0541173 0.0533356 0.0529681 0.0553606 0.0542518 0.0533288 0.0553495 0.0530097 0.0541891 0.053263 0.0553389 0.0528575 0.0533908 0.0553311 0.0543235 0.0553552 0.052922 0.0533923 0.0542581 0.055343 0.053344 0.0533239 0.0542413 0.0553666 0.053365 0.0532833 0.0543205 0.0553637 0.0534691 0.0531998 0.0543759 0.0532502 0.055355 0.0543176 0.0532597 0.0532176 0.0542419 0.0553485 0.0533058 0.0543874 0.0533017 0.0553471 0.0535613 0.0553454 0.0532285 0.0544343 0.0535238 0.0553539 0.0532158 0.0553307 0.0536134 0.0545351 0.053121 0.0553328 0.0534419 0.0544923 0.0530689 0.0553401 0.0534142 0.0545095 0.0532346 0.0553252 0.054453 0.0535197 0.0532785 0.0553136 0.0544406 0.0531392 0.05327 0.0553031 0.0531559 0.0531506 0.0545617 0.0552827 0.0531798 0.0530412 0.0543319 0.0553208 0.0530405 0.0531688 0.0552982 0.0544585 0.053026 0.0530562 0.0552467 0.0543944 0.0531102 0.0532866 0.0529467 0.0543875 0.0552175 0.0533021 0.0552794 0.0543211 0.0530667 0.0534101 0.0544021 0.0552269 0.0529719 0.0552587 0.0533786 0.0553059 0.0544558 0.0531826 0.0527911 0.0553109 0.0531659 0.054504 0.0532617 0.0529191 0.0553149 0.0545663 0.0515697 0.0553163 0.052836 0.0545646 0.0517114 0.0552972 0.0528895 0.0517504 0.0552789 0.0545678 0.0529505 0.0552603 0.0514631 0.0529331 0.0545143 0.0515919 0.0552321 0.052923 0.051638 0.0552293 0.0546259 0.0528247 0.0518151 0.0552823 0.0530794 0.0527847 0.0531683 0.0519312 0.0552648 0.0532087 0.0531435 0.055252 0.0520468 0.0531495 0.0532413 0.0519994 0.055218 0.0532225 0.0530984 0.0530914 0.0516735 0.0550728 0.0530772 0.0531896 0.0550706 0.0530089 0.0518609 0.0532484 0.0550365 0.0530657 0.0517797 0.053423 0.055114 0.0531304 0.051358 0.0533413 0.0551524 0.0514091 0.0530823 0.0551068 0.0514997 0.0534732 0.0529948 0.0549948 0.0515446 0.0534225 0.0529361 0.0512534 0.0533428 0.0529703 0.0549632 0.0512307 0.0528879 0.0550601 0.0514714 0.0534996 0.0529279 0.0513772 0.0550284 0.0535676 0.0528327 0.0550032 0.051528 0.0531969 0.0549653 0.051664 0.0531265 0.0527358 0.0551322 0.0532946 0.0516917 0.0527856 0.0551641 0.0533391 0.0515449 0.0551115 0.0528693 0.0532379 0.0550989 0.0515354 0.0531471 0.0527981 0.0532457 0.0551863 0.0517038 0.0527967 0.0533287 0.0551135 0.0521325 0.0527468 0.0533573 0.0551461 0.0520853 0.0534322 0.0550711 0.0526465 0.0522371 0.0550376 0.0535839 0.0519991 0.0549934 0.0536318 0.0534955 0.0550741 0.0519207 0.0534127 0.0535295 0.0550312 0.0520745 0.0535807 0.055043 0.0535714 0.0521725 0.0535016 0.0550037 0.0534668 0.0523128 0.0549101 0.0534142 0.0535604 0.0524668 0.0534666 0.0548771 0.0536651 0.0524467 0.0535036 0.0548315 0.0537635 0.0521713 0.0549305 0.0534455 0.0536062 0.0534143 0.0537566 0.0522949 0.0548238 0.053395 0.053699 0.0548836 0.0523433 0.0533067 0.0547691 0.0538344 0.051844 0.0533669 0.0547201 0.0518903 0.0537786 0.0532921 0.0548293 0.0519868 0.0532517 0.0538346 0.0547655 0.0518168 0.0532634 0.053907 0.0517878 0.0547159 0.0531476 0.0539198 0.0549241 0.0518795 0.0532281 0.053829 0.05497 0.0533422 0.052058 0.0538952 0.0532733 0.0549358 0.0522306 0.0531754 0.0548827 0.0539737 0.0521857 0.0531253 0.0549523 0.0536545 0.0519654 0.0548952 0.0530487 0.0538023 0.0548664 0.0520715 0.0537073 0.0534154 0.0548213 0.0511056 0.0536247 0.0547996 0.0533383 0.0513383 0.0536932 0.054762 0.0533146 0.0512618 0.0537686 0.0511501 0.054741 0.0533283 0.0537951 0.051038 0.0548345 0.0532122 0.0538657 0.0510081 0.0532269 0.0547777 0.0539411 0.0510976 0.0551733 0.0533082 0.0538415 0.0512229 0.0551646 0.0539038 0.0532561 0.0513885 0.0552002 0.0539853 0.0551294 0.0516256 0.0531264 0.0531324 0.0552058 0.051462 0.0531367 0.0551392 0.0531965 0.0532245 0.0513714 0.0551723 0.0531295 0.0533147 0.0550723 0.0513006 0.0531545 0.0532304 0.0550345 0.0508876 0.0532341 0.0550865 0.0530254 0.0508918 0.0533037 0.0550458 0.0532063 0.0510688 0.0552008 0.0534102 0.0530925 0.0506929 0.0551584 0.0535609 0.0531037 0.0507839 0.0534961 0.0551826 0.0530758 0.0509692 0.0534043 0.052962 0.0508054 0.0551414 0.0534742 0.055125 0.052981 0.0508923 0.0533885 0.0551101 0.0530019 0.0511124 0.0534808 0.055023 0.0531149 0.051198 0.0535745 0.0550747 0.0529103 0.0512451 0.0532163 0.0550916 0.052981 0.0531484 0.0510879 0.0528837 0.0533239 0.0550379 0.0509921 0.0532861 0.0550594 0.0527798 0.0511512 0.0532152 0.0549856 0.0531342 0.0516417 0.0531488 0.0549573 0.0531221 0.0516936 0.0548817 0.0533036 0.0530165 0.0515223 0.0549115 0.0534602 0.0530019 0.0514716 0.0549377 0.0533829 0.0530123 0.0549891 0.0515731 0.0535362 0.0529028 0.0550052 0.0519073 0.0534481 0.0528711 0.0549399 0.0533706 0.0518101 0.0530647 0.0548611 0.0529339 0.0535308 0.0520371 0.0548202 0.0529725 0.0535559 0.0518969 0.052887 0.0547662 0.0536109 0.0517579 0.0548857 0.0527388 0.0536795 0.0517084 0.0547639 0.0528372 0.0537821 0.0517865 0.0548164 0.0528558 0.0537104 0.0527324 0.05134 0.0549632 0.0536405 0.0527725 0.0537035 0.0514396 0.0549194 0.0537831 0.0514051 0.0526922 0.0549485 0.0539231 0.0515639 0.052648 0.0538494 0.0550015 0.0527957 0.05117 0.0540055 0.0549011 0.0526983 0.0512226 0.0539283 0.054818 0.0525591 0.0513009 0.0548613 0.0538588 0.0526422 0.0514324 0.0539657 0.0547572 0.0525698 0.0515899 0.0548408 0.0540316 0.0529451 0.0516359 0.0548008 0.0536397 0.0528357 0.0517854 0.0537799 0.0528634 0.0547845 0.053714 0.0527898 0.0514049 0.0542283 0.0536053 0.0527484 0.0515673 0.0542825 0.0536793 0.0526792 0.054326 0.0525829 0.0528524 0.053755 0.0542142 0.0525015 0.0541732 0.0537789 0.0526583 0.0539076 0.0524596 0.0543593 0.0527468 0.0538425 0.0542939 0.0526492 0.0526048 0.0542311 0.0539762 0.0524058 0.0527172 0.0541292 0.0539103 0.0540635 0.0525628 0.0525433 0.054156 0.0538406 0.0527326 0.05408 0.0526046 0.0539886 0.0526858 0.0539363 0.0526467 0.0541712 0.0528075 0.0526123 0.0540981 0.0540092 0.0525982 0.0525496 0.0543972 0.0539863 0.0526807 0.0543297 0.0524825 0.0540483 0.0527278 0.0543169 0.0525118 0.0541116 0.0522844 0.0544672 0.052421 0.0540508 0.0523605 0.0524548 0.0539806 0.0544822 0.0524956 0.0525071 0.0541161 0.0543963 0.0521563 0.0524346 0.0541813 0.0543488 0.0522158 0.0541898 0.0542478 0.052342 0.0523071 0.054249 0.0542565 0.052447 0.0541328 0.0522638 0.0543176 0.0525707 0.0542056 0.0541819 0.0524378 0.0523659 0.0542746 0.05421 0.0523354 0.0542732 0.0542828 0.0539439 0.0524878 0.0541714 0.0543578 0.0539175 0.0529326 0.053832 0.0540924 0.054019 0.0539595 0.0529261 0.0540258 0.0539095 0.0538608 0.0541722 0.0530535 0.0538011 0.0540833 0.0538797 0.0540412 0.0527739 0.0541609 0.0539668 0.0538159 0.0528121 0.054269 0.0539153 0.0528599 0.0542374 0.0538882 0.0537596 0.0529596 0.0537226 0.0543377 0.053794 0.0538167 0.0543679 0.0530876 0.0537472 0.0537267 0.0542433 0.0536427 0.0536399 0.0530866 0.0536579 0.0536481 0.0543113 0.053205 0.0538319 0.0543098 0.0537169 0.0537611 0.0529658 0.0543764 0.0535316 0.0540934 0.0529667 0.0544427 0.0539754 0.0537544 0.0526094 0.0540141 0.0543791 0.0537036 0.0527107 0.0541573 0.0545044 0.0528073 0.0537086 0.0540639 0.054485 0.0526943 0.0544558 0.054029 0.0536424 0.0525085 0.0544166 0.0538756 0.053645 0.0526202 0.0545349 0.0538897 0.0535898 0.0525635 0.0545539 0.0538179 0.053479 0.0528733 0.0539547 0.0534883 0.0546187 0.052846 0.0539527 0.0535923 0.0526422 0.0535012 0.0546795 0.0537983 0.0527702 0.0533702 0.0546122 0.0538668 0.0536482 0.0545857 0.0545102 0.054675 0.0535622 0.0543806 0.0544398 0.0534782 0.0544291 0.0544017 0.0535603 0.0545283 0.0545145 0.0534067 0.0544594 0.0544332 0.0534762 0.0544653 0.0545704 0.0534115 0.0543261 0.0545039 0.0545045 0.0533553 0.054246 0.054574 0.0533518 0.0542823 0.054402 0.0532789 0.0546957 0.0542975 0.0532491 0.05464 0.0543538 0.0534258 0.0546294 0.0534123 0.0545974 0.0546804 0.0533135 0.0545826 0.0533388 0.054028 0.0545261 0.053309 0.0541081 0.0544831 0.0532026 0.0541808 0.0533037 0.0546137 0.0540623 0.0531494 0.054109 0.0544965 0.0532223 0.0541396 0.0545571 0.0530816 0.0542162 0.0541889 0.0545497 0.0530956 0.0542864 0.0544211 0.0535511 0.0543655 0.0536067 0.0543646 0.0543017 0.0534863 0.0542681 0.0544376 0.0543417 0.0535358 0.0544513 0.0541423 0.0543888 0.0534771 0.0534231 0.0540706 0.0543507 0.0534129 0.054218 0.054111 0.0533821 0.0542013 0.0532538 0.0541312 0.0541228 0.0533572 0.0540929 0.0540511 0.0532728 0.05418 0.0542131 0.0541559 0.0543009 0.0534006 0.0540614 0.0543919 0.0533539 0.0539975 0.0543491 0.053238 0.0539238 0.0532997 0.0542424 0.0538542 0.0542661 0.0532875 0.0540384 0.0543966 0.0531603 0.0539809 0.0532139 0.0539679 0.0543187 0.0531818 0.0539001 0.0544388 0.0531001 0.0542031 0.0544165 0.0531088 0.0542415 0.0545725 0.0531115 0.0541206 0.0545035 0.0530571 0.054462 0.0542714 0.0545189 0.0529537 0.0545325 0.0542074 0.0532392 0.0541463 0.054635 0.0539996 0.0532203 0.054609 0.0540771 0.0531206 0.0531493 0.0539234 0.0530342 0.0540287 0.0531236 0.0540965 0.0530064 0.0531288 0.0539602 0.0535588 0.0529279 0.0534851 0.0529368 0.0534123 0.0528058 0.0536844 0.0530443 0.0535925 0.0529245 0.0535928 0.0530467 0.053476 0.0535292 0.0529733 0.0533481 0.0528808 0.0533819 0.0529094 0.0532124 0.0528153 0.0526977 0.052742 0.0546885 0.0527663 0.0545879 0.0527724 0.0547229 0.0546551 0.0526273 0.0544297 0.0532278 0.0544953 0.0531137 0.054554 0.0544788 0.0531518 0.0545338 0.0531613 0.0546166 0.0531049 0.054682 0.0530298 0.0547408 0.0530368 0.0546013 0.0529469 0.0547359 0.0529974 0.0546667 0.0527897 0.0528695 0.0547303 0.0529024 0.0543199 0.0526922 0.0543578 0.052841 0.0543858 0.0530446 0.0544048 0.052992 0.0544249 0.0529827 0.0544192 0.0544729 0.0528957 0.0532809 0.054455 0.0528482 0.0534955 0.0544359 0.0545078 0.0533544 0.0528573 0.0544964 0.0532707 0.0526939 0.0545689 0.0527775 0.0537513 0.0545091 0.0526449 0.0536723 0.054603 0.0527448 0.0545705 0.0535847 0.0526922 0.053704 0.0544348 0.0525888 0.0536336 0.0544989 0.0528056 0.054502 0.053631 0.0525857 0.0545756 0.0535329 0.0534476 0.0526707 0.0544929 0.0533382 0.0527206 0.0545436 0.0533465 0.0526184 0.0546119 0.0534547 0.0525299 0.0545594 0.0535361 0.0524752 0.0546223 0.0534121 0.0524885 0.0545506 0.053149 0.0524158 0.0546448 0.0531976 0.0523417 0.0530845 0.0546995 0.052397 0.053016 0.0546563 0.0523709 0.0530054 0.0546828 0.0525822 0.0532556 0.0545644 0.0531887 0.0525694 0.0546183 0.0531109 0.0546025 0.0524714 0.0546272 0.0530941 0.0523915 0.0546467 0.052907 0.0523971 0.0529276 0.0546428 0.0528162 0.0525165 0.0546911 0.0527856 0.0546569 0.0522816 0.0529468 0.0546881 0.0530131 0.0524442 0.0547315 0.0528372 0.0523482 0.0528414 0.0546981 0.0522486 0.054756 0.0532589 0.0522558 0.0547191 0.0531603 0.052274 0.0547735 0.0530983 0.0522137 0.0547139 0.0532443 0.0521541 0.0546622 0.0533242 0.0529216 0.05477 0.05322 0.0547446 0.0527674 0.0531629 0.0527007 0.0547448 0.053012 0.0528263 0.0547631 0.0529532 0.0528067 0.054806 0.0528592 0.0526724 0.0548187 0.0525962 0.0526127 0.0530608 0.0547851 0.0525826 0.0531352 0.0525699 0.0528819 0.0548651 0.0524183 0.0529963 0.054812 0.05249 0.0537759 0.054868 0.0525442 0.0548241 0.0524705 0