# vtk DataFile Version 3.0
vtk output
ASCII
DATASET UNSTRUCTURED_GRID
POINTS 33006 float
0 0 0
1 0 0
1 1 0
0 1 0
0 0 0
0 0 0
1 0 0
1 1 0
0 1 0
0 0 0
0 0 0
1 0 0
1 1 0
0 1 0
0 0 0
0.890455 0 0
1 0 0
1 0.16382 0
0.890455 0 0
0 0 0
1 0 0
1 1 0
0 1 0
0 0 0
0 0 0
1 0 0
1 1 0
0 1 0
0 0 0
0 0 0
1 0 0
1 1 0
0 1 0
0 0 0
0.915093 0 0
1 0 0
1 0.124893 0
0.920041 0.00781601 0
0.915093 0 0
0 0 0
1 0 0
1 1 0
0 1 0
0 0 0
0.963112 0 0
1 0 0
1 0.0539851 0
0.996514 0.0492704 0
0.963112 0 0
0 0 0
1 0 0
1 1 0
0 1 0
0 0 0
0 0 0
1 0 0
1 1 0
0 1 0
0 0 0
0.962206 0 0
1 0 0
1 0.0434161 0
0.962206 0 0
0 0 0
1 0 0
1 1 0
0 1 0
0 0 0
0 0 0
1 0 0
1 1 0
0 1 0
0 0 0
0 0 0
1 0 0
1 1 0
0 1 0
0 0 0
0 0 0
1 0 0
1 1 0
0 1 0
0 0 0
0.9992 0 0
1 0 0
1 0.00164468 0
0.9992 0 0
0 0 0
1 0 0
1 1 0
0 1 0
0 0 0
0 0 0
1 0 0
1 1 0
0 1 0
0 0 0
0 0 0
1 0 0
1 1 0
0 1 0
0 0 0
0 0 0
1 0 0
1 1 0
0 1 0
0 0 0
0 0 0
1 0 0
1 1 0
0 1 0
0 0 0
0.981174 0 0
1 0 0
1 0.0192471 0
0.981174 0 0
0 0 0
1 0 0
1 1 0
0 1 0
0 0 0
0 0 0
1 0 0
1 1 0
0 1 0
0 0 0
0 0 0
1 0 0
1 1 0
0 1 0
0 0 0
0.951309 0 0
1 0 0
1 0.12129 0
0.951309 0 0
0 0 0
1 0 0
1 1 0
0 1 0
0 0 0
0 0 0
1 0 0
1 1 0
0 1 0
0 0 0
0 0 0
1 0 0
1 1 0
0 1 0
0 0 0
0.938598 0 0
1 0 0
1 0.0815326 0
0.986839 0.0653032 0
0.938598 0 0
0 0 0
1 0 0
1 1 0
0 1 0
0 0 0
0.98092 0 0
1 0 0
1 0.0334045 0
0.98092 0 0
0 0 0
1 0 0
1 1 0
0 1 0
0 0 0
0.954337 0 0
1 0 0
1 0.0652748 0
0.993043 0.0560762 0
0.954337 0 0
0 0 0
1 0 0
1 1 0
0 1 0
0 0 0
0 0 0
1 0 0
1 1 0
0 1 0
0 0 0
0 0 0
1 0 0
1 1 0
0 1 0
0 0 0
0.875104 0 0
1 0 0
1 0.222433 0
0.875104 0 0
0 0 0
1 0 0
1 1 0
0 1 0
0 0 0
0 0 0
1 0 0
1 1 0
0 1 0
0 0 0
0 0 0
1 0 0
1 1 0
0 1 0
0 0 0
0.914318 0 0
1 0 0
1 0.152053 0
0.914318 0 0
0 0 0
1 0 0
1 1 0
0 1 0
0 0 0
0 0 0
1 0 0
1 1 0
0 1 0
0 0 0
0 0 0
1 0 0
1 1 0
0 1 0
0 0 0
0.893837 0 0
1 0 0
1 0.173345 0
0.893837 0 0
0 0 0
1 0 0
1 1 0
0 1 0
0 0 0
0 0 0
1 0 0
1 1 0
0 1 0
0 0 0
0 0 0
1 0 0
1 1 0
0 1 0
0 0 0
0.875322 0 0
1 0 0
1 0.300899 0
0.961211 0.213003 0
0.875322 0 0
0 0 0
1 0 0
1 1 0
0 1 0
0 0 0
0 0 0
1 0 0
1 1 0
0 1 0
0 0 0
0 0 0
1 0 0
1 1 0
0 1 0
0 0 0
0.86264 0 0
1 0 0
1 0.301053 0
0.985232 0.272826 0
0.86264 0 0
0 0 0
1 0 0
1 1 0
0 1 0
0 0 0
0 0 0
1 0 0
1 1 0
0 1 0
0 0 0
0.877529 0 0
1 0 0
1 0.239414 0
0.877529 0 0
0 0 0
1 0 0
1 1 0
0 1 0
0 0 0
0 0 0
1 0 0
1 1 0
0 1 0
0 0 0
0 0 0
0.0184363 0 0
0 0.0222699 0
0 0 0
0 0 0
1 0 0
1 1 0
0 1 0
0 0 0
0 0 0
1 0 0
1 1 0
0 1 0
0 0 0
0 0 0
1 0 0
1 1 0
0 1 0
0 0 0
0.910017 0 0
1 0 0
1 0.298368 0
0.972487 0.214075 0
0.910017 0 0
0 0 0
1 0 0
1 1 0
0 1 0
0 0 0
0 0 0
1 0 0
1 1 0
0 1 0
0 0 0
0 0 0
0.0402293 0 0
0 0.0457354 0
0 0 0
0 0 0
1 0 0
1 1 0
0 1 0
0 0 0
0.92771 0 0
1 0 0
1 0.117171 0
0.92771 0 0
0 0 0
1 0 0
1 1 0
0 1 0
0 0 0
0 0 0
1 0 0
1 1 0
0 1 0
0 0 0
0.963804 0 0
1 0 0
1 0.0603713 0
0.995157 0.0529311 0
0.963804 0 0
0 0 0
1 0 0
1 1 0
0 1 0
0 0 0
0 0 0
0.0101003 0 0
0 0.0113025 0
0 0 0
0 0 0
1 0 0
1 1 0
0 1 0
0 0 0
0.955627 0 0
1 0 0
1 0.0684049 0
0.992217 0.0573051 0
0.955627 0 0
0 0 0
0.0154696 0 0
0 0.0172726 0
0 0 0
0 0 0
1 0 0
1 1 0
0 1 0
0 0 0
0 0 0
1 0 0
1 1 0
0 1 0
0 0 0
0.925697 0 0
1 0 0
1 0.14442 0
0.925697 0 0
0 0 0
0.0103517 0 0
0 0.0106691 0
0 0 0
0 0 0
1 0 0
1 1 0
0 1 0
0 0 0
0 0 0
1 0 0
1 1 0
0 1 0
0 0 0
0 0 0
0.0510033 0 0
0 0.0625564 0
0 0 0
0.958646 0 0
1 0 0
1 0.124696 0
0.958646 0 0
0 0 0
1 0 0
1 1 0
0 1 0
0 0 0
0 0 0
1 0 0
1 1 0
0 1 0
0 0 0
0 0 0
1 0 0
1 1 0
0 1 0
0 0 0
0.966495 0 0
1 0 0
1 0.112059 0
0.966495 0 0
0 0 0
1 0 0
1 1 0
0 1 0
0 0 0
0 0 0
1 0 0
1 1 0
0 1 0
0 0 0
0 0 0
1 0 0
1 1 0
0 1 0
0 0 0
0 0 0
1 0 0
1 1 0
0 1 0
0 0 0
0 0 0
1 0 0
1 1 0
0 1 0
0 0 0
0 0 0
1 0 0
1 1 0
0 1 0
0 0 0
0 0 0
1 0 0
1 1 0
0 1 0
0 0 0
0.71827 0 0
1 0 0
1 0.465722 0
0.889233 0.291082 0
0.71827 0 0
0 0 0
1 0 0
1 1 0
0 1 0
0 0 0
0 0 0
1 0 0
1 1 0
0 1 0
0 0 0
0 0 0
1 0 0
1 1 0
0 1 0
0 0 0
0.63686 0 0
1 0 0
1 0.471296 0
0.903108 0.350228 0
0.648235 0.0159245 0
0.63686 0 0
0 0 0
1 0 0
1 1 0
0 1 0
0 0 0
0 0 0
1 0 0
1 1 0
0 1 0
0 0 0
0 0 0
1 0 0
1 1 0
0 1 0
0 0 0
0 0 0
1 0 0
1 1 0
0 1 0
0 0 0
0 0 0
1 0 0
1 1 0
0 1 0
0 0 0
0.702664 0 0
1 0 0
1 0.34781 0
0.702664 0 0
0 0 0
1 0 0
1 1 0
0 1 0
0 0 0
0 0 0
1 0 0
1 1 0
0 1 0
0 0 0
0 0 0
1 0 0
1 1 0
0 1 0
0 0 0
0 0 0
1 0 0
1 1 0
0 1 0
0 0 0
0.694358 0 0
1 0 0
1 0.46725 0
0.884294 0.296793 0
0.694358 0 0
0 0 0
1 0 0
1 1 0
0 1 0
0 0 0
0 0 0
1 0 0
1 1 0
0 1 0
0 0 0
0.677609 0 0
1 0 0
1 0.422268 0
0.872232 0.265295 0
0.677609 0 0
0 0 0
1 0 0
1 1 0
0 1 0
0 0 0
0 0 0
1 0 0
1 1 0
0 1 0
0 0 0
0 0 0
1 0 0
1 1 0
0 1 0
0 0 0
0 0 0
1 0 0
1 1 0
0 1 0
0 0 0
0.7366 0 0
1 0 0
1 0.333399 0
0.879293 0.189151 0
0.7366 0 0
0 0 0
1 0 0
1 1 0
0 1 0
0 0 0
0 0 0
1 0 0
1 1 0
0 1 0
0 0 0
0 0 0
1 0 0
1 1 0
0 1 0
0 0 0
0 0 0
1 0 0
1 1 0
0 1 0
0 0 0
0.785082 0 0
1 0 0
1 0.490583 0
0.832039 0.114309 0
0.785082 0 0
0 0 0
1 0 0
1 1 0
0 1 0
0 0 0
0 0 0
1 0 0
1 1 0
0 1 0
0 0 0
0 0 0
1 0 0
1 1 0
0 1 0
0 0 0
0.786515 0 0
1 0 0
1 0.523119 0
0.830669 0.115884 0
0.786515 0 0
0 0 0
1 0 0
1 1 0
0 1 0
0 0 0
0 0 0
1 0 0
1 1 0
0 1 0
0 0 0
0 0 0
1 0 0
1 1 0
0 1 0
0 0 0
0 0 0
1 0 0
1 1 0
0 1 0
0 0 0
0 0 0
1 0 0
1 1 0
0 1 0
0 0 0
0 0 0
0.0408292 0 0
0.250719 0.131518 0
0.275063 0.147195 0
1 0.626711 0
1 1 0
0 1 0
0 0 0
0 0 0
1 0 0
1 1 0
0 1 0
0 0 0
0 0 0
1 0 0
1 1 0
0 1 0
0 0 0
0.819759 0 0
1 0 0
1 0.435091 0
0.905996 0.217809 0
0.819759 0 0
0 0 0
1 0 0
1 1 0
0 1 0
0 0 0
0 0 0
1 0 0
1 1 0
0 1 0
0 0 0
0 0 0
1 0 0
1 1 0
0 1 0
0 0 0
0 0 0
0.179686 0 0
0.340677 0.209913 0
0.830331 0.866704 0
0.927868 1 0
0 1 0
0 0 0
0 0 0
1 0 0
1 1 0
0 1 0
0 0 0
0 0 0
1 0 0
1 1 0
0 1 0
0 0 0
0.702003 0 0
1 0 0
1 0.364412 0
0.702003 0 0
0 0 0
1 0 0
1 1 0
0 1 0
0 0 0
0 0 0
1 0 0
1 1 0
0 1 0
0 0 0
0 0 0
1 0 0
1 1 0
0 1 0
0 0 0
0 0 0
0.239856 0 0
0.417703 0.236339 0
0.428076 0.250541 0
0.959365 1 0
0 1 0
0 0 0
0 0 0
1 0 0
1 1 0
0 1 0
0 0 0
0.716422 0 0
1 0 0
1 0.366897 0
0.716422 0 0
0 0 0
0.0288151 0 0
0 0.0368862 0
0 0 0
0 0 0
1 0 0
1 1 0
0 1 0
0 0 0
0 0 0
0.214967 0 0
0.939787 1 0
0 1 0
0 0 0
0.80354 0 0
1 0 0
1 0.54948 0
0.838833 0.106498 0
0.80354 0 0
0 0 0
0.0289404 0 0
0 0.0397243 0
0 0 0
0 0 0
1 0 0
1 1 0
0 1 0
0 0 0
0 0 0
1 0 0
1 1 0
0 1 0
0 0 0
0 0 0
0.114691 0 0
0.28406 0.199 0
0.5417 0.509527 0
0.932607 1 0
0 1 0
0 0 0
0 0 0
1 0 0
1 1 0
0 1 0
0 0 0
0.754053 0 0
1 0 0
1 0.352231 0
0.879477 0.188916 0
0.754053 0 0
0 0 0
1 0 0
1 1 0
0 1 0
0 0 0
0 0 0
1 0 0
1 1 0
0 1 0
0 0 0
0 0 0
1 0 0
1 1 0
0 1 0
0 0 0
0 0 0
1 0 0
1 1 0
0 1 0
0 0 0
0 0.0203937 0
0.339461 0.368767 0
0.594446 0.64018 0
0.915833 1 0
0 1 0
0 0.0203937 0
0.570573 0 0
1 0 0
1 0.490303 0
0.7062 0.162798 0
0.637331 0.082441 0
0.570573 0 0
0 0 0
1 0 0
1 1 0
0 1 0
0 0 0
0 0 0
1 0 0
1 1 0
0 1 0
0 0 0
0 0 0
0.0639364 0 0
0 0.104891 0
0 0 0
0 0 0
1 0 0
1 1 0
0 1 0
0 0 0
0 0 0
0.097397 0 0
0.272988 0.198175 0
0.541885 0.509266 0
0.949416 1 0
0 1 0
0 0 0
0.595751 0 0
1 0 0
1 0.428874 0
0.882586 0.309654 0
0.595751 0 0
0 0 0
1 0 0
1 1 0
0 1 0
0 0 0
0 0 0
1 0 0
1 1 0
0 1 0
0 0 0
0 0 0
1 0 0
1 1 0
0 1 0
0 0 0
0 0 0
0.0551255 0 0
0 0.0776172 0
0 0 0
0 0 0
1 0 0
1 1 0
0 1 0
0 0 0
0.67107 0 0
1 0 0
1 0.491737 0
0.901746 0.350279 0
0.67107 0 0
0 0.0251958 0
0.293953 0.26977 0
1 0.890221 0
1 1 0
0 1 0
0 0.0251958 0
0 0 0
1 0 0
1 1 0
0 1 0
0 0 0
0 0 0
1 0 0
1 1 0
0 1 0
0 0 0
0 0 0
1 0 0
1 1 0
0 1 0
0 0 0
0 0 0
1 0 0
1 1 0
0 1 0
0 0 0
0.504374 0 0
1 0 0
1 0.501481 0
0.876829 0.381273 0
0.504374 0 0
0 0 0
1 0 0
1 1 0
0 1 0
0 0 0
0 0.0618262 0
0.506571 0.436986 0
0.727845 0.606263 0
1 0.826295 0
1 1 0
0 1 0
0 0.0618262 0
0 0 0
0.0905111 0 0
0 0.155842 0
0 0 0
0 0 0
1 0 0
1 1 0
0 1 0
0 0 0
0.635719 0 0
1 0 0
1 0.490809 0
0.936026 0.411681 0
0.635719 0 0
0 0 0
1 0 0
1 1 0
0 1 0
0 0 0
0 0.0486441 0
0.284914 0.273944 0
1 0.870897 0
1 1 0
0 1 0
0 0.0486441 0
0 0 0
1 0 0
1 1 0
0 1 0
0 0 0
0 0 0
1 0 0
1 1 0
0 1 0
0 0 0
0 0 0
1 0 0
1 1 0
0 1 0
0 0 0
0.602325 0 0
1 0 0
1 0.50643 0
0.712128 0.147041 0
0.649332 0.0650193 0
0.602325 0 0
0 0 0
1 0 0
1 1 0
0 1 0
0 0 0
0 0 0
0.189538 0 0
0.980523 1 0
0 1 0
0 0 0
0 0 0
0.0788303 0 0
0 0.125921 0
0 0 0
0 0 0
1 0 0
1 1 0
0 1 0
0 0 0
0 0 0
1 0 0
1 1 0
0 1 0
0 0 0
0.62069 0 0
1 0 0
1 0.451335 0
0.879001 0.313374 0
0.62069 0 0
0 0 0
0.0640936 0 0
0 0.0989496 0
0 0 0
0 0.0681555 0
0.276277 0.277933 0
1 0.858042 0
1 1 0
0 1 0
0 0.0681555 0
0 0 0
1 0 0
1 1 0
0 1 0
0 0 0
0.730647 0 0
1 0 0
1 0.370373 0
0.730647 0 0
0 0 0
0.114924 0 0
0 0.225745 0
0 0 0
0 0 0
1 0 0
1 1 0
0 1 0
0 0 0
0.713574 0 0
1 0 0
1 0.500455 0
0.879267 0.297245 0
0.713574 0 0
0 0.0431697 0
0.333616 0.370435 0
0.596783 0.638029 0
0.935342 1 0
0 1 0
0 0.0431697 0
0 0 0
1 0 0
1 1 0
0 1 0
0 0 0
0 0 0
1 0 0
1 1 0
0 1 0
0 0 0
0 0 0
0.106107 0 0
0 0.193478 0
0 0 0
0 0.0637221 0
0.327642 0.372141 0
0.598593 0.636363 0
0.953356 1 0
0 1 0
0 0.0637221 0
0.775966 0 0
1 0 0
1 0.355652 0
0.884684 0.182296 0
0.775966 0 0
0 0.149097 0
0.0853288 0.222177 0
0.796741 0.847855 0
0.959986 1 0
0 1 0
0 0.149097 0
0.695967 0 0
1 0 0
1 0.508509 0
0.90164 0.350283 0
0.695967 0 0
0 0.219084 0
0.360208 0.493359 0
0.53644 0.633981 0
0.973822 1 0
0 1 0
0 0.219084 0
0.757849 0 0
1 0 0
1 0.375803 0
0.757849 0 0
0 0 0
0.390483 0 0
0.192808 0.153969 0
0 0.298792 0
0 0 0
0 0 0
0.0105759 0 0
0 0.00567304 0
0 0 0
0 0.0819546 0
0.323423 0.373345 0
0.601989 0.633238 0
0.976 1 0
0 1 0
0 0.0819546 0
0.752317 0 0
1 0 0
1 0.542069 0
0.880196 0.292318 0
0.752317 0 0
0 0.170968 0
0.0591835 0.218778 0
0.79755 0.830702 0
0.989983 1 0
0 1 0
0 0.170968 0
0 0 0
0.0610899 0 0
0.0499807 0.005771 0
0 0.0295391 0
0 0 0
0 0 0
0.282566 0 0
0 0.170241 0
0 0 0
0.868192 0.0711938 0
0.847575 0 0
1 0 0
1 0.459731 0
0.920464 0.235135 0
0.868192 0.0711938 0
0 0 0
0.0102434 0 0
0 0.00499395 0
0 0 0
0 0 0
0.0103771 0 0
0.246941 0.237178 0
0.636405 0.638328 0
0.907546 0.930388 0
0.97119 1 0
0 1 0
0 0 0
0.871552 0 0
1 0 0
1 0.303258 0
0.98513 0.272818 0
0.871552 0 0
0 0 0
0.00388742 0 0
0 0.00219981 0
0 0 0
0 0 0
0.159052 0 0
0.995242 0.981619 0
1 0.987398 0
1 1 0
0 1 0
0 0 0
0 0 0
0.00331559 0 0
0 0.00206029 0
0 0 0
0.896864 0 0
1 0 0
1 0.235097 0
0.896864 0 0
0 0 0
0.124986 0 0
0.304824 0.20413 0
0.827986 0.813563 0
0.984823 1 0
0 1 0
0 0 0
0 0 0
[...]
CELL_DATA 6054
FIELD FieldData 3
weight 1 6054 float
 0.978158 0.97796 0.97833 0.797074 0.971878 0.984596 0.978001 0.790831 0.990516 0.778242 0.98416 0.990844 0.771953 0.984285 0.978247 0.98442 0.996835 0.772056 0.996883 0.990563 0.971698 0.971937 0.978228 0.765749 0.98433 0.984279 0.984579 0.78425 0.977928 0.984323 0.984283 0.78426 0.978223 0.778005 0.990589 0.778178 0.990566 0.990709 0.996708 0.803123 0.990391 0.996674 0.990842 0.796693 1.00304 1.0033 1.00301 0.803191 0.996962 1.00304 0.996877 0.809375 1.0096 1.00336 1.00932 0.815641 0.953268 0.953261 0.809259 0.953267 0.959522 0.728155 0.95931 0.965453 0.959402 0.803357 0.965838 0.959523 0.728299 0.959536 0.790573 0.965609 0.965449 0.784594 0.971846 0.728255 0.971956 0.784391 0.728012 0.978291 0.965792 0.79673 0.728323 0.978282 0.978124 0.734127 0.790764 0.972003 0.977883 0.971824 0.790775 0.971696 0.984536 0.984279 0.978147 0.959242 0.953137 0.959498 0.84081 0.95298 0.965446 0.95945 0.859465 0.965705 0.959323 0.959476 0.96584 0.965554 0.840675 0.96539 0.971648 0.971809 0.971991 0.846761 0.978213 0.984263 0.853065 0.984378 0.984322 0.977965 0.971808 0.834508 0.977988 0.978003 0.978287 0.98433 0.828035 0.984513 0.984465 0.984156 0.834416 0.990794 0.984324 0.996965 0.996757 0.990755 1.17799 0.990472 0.990473 0.828143 0.990438 0.996827 0.996673 1.17802 0.996765 1.0029 0.846914 0.997 1.00307 1.00952 1.1844 1.00957 0.84701 0.734559 1.00312 1.1718 0.834197 0.734468 1.00324 1.0031 1.18428 1.01566 0.840692 1.00958 1.00917 1.0094 0.990453 1.17823 0.871672 0.990396 0.990865 0.740646 0.997103 1.19054 0.859236 0.996646 0.990389 0.996994 0.734323 0.990742 0.859216 1.178 0.996631 1.00329 0.997106 1.00311 0.878322 1.003 1.17814 0.74082 1.00295 0.865598 1.00922 1.18427 1.00312 1.00954 1.01577 0.871943 1.01584 1.19071 0.734244 1.00943 1.00919 0.865814 0.740717 1.18416 1.00916 0.846948 0.746706 1.01569 0.852998 1.18425 1.01564 1.0157 0.740624 1.19044 0.840624 1.1908 0.859532 1.19673 0.846846 0.709412 0.746631 1.19693 0.853109 1.19686 0.753365 0.703047 0.821988 0.746729 1.19085 0.815663 0.746969 1.19692 0.746865 0.809532 1.1842 0.721657 0.753303 0.815495 1.1904 0.715626 0.746916 0.822072 1.19665 0.721653 0.753265 0.828067 1.19684 0.74701 0.821631 1.17837 0.746765 0.803241 0.740491 1.18441 0.759215 0.796985 0.753311 0.797117 0.759317 0.809263 0.753072 0.80951 1.18419 0.721732 0.802911 0.702957 1.19086 0.709449 0.803091 0.703122 1.17815 0.721665 0.834135 0.709495 1.1844 0.728334 1.18413 0.828066 0.715429 0.728118 1.18417 0.82792 0.727996 1.18428 0.840798 0.728257 1.1842 0.834412 1.19038 0.740411 1.19085 0.83459 0.734283 0.715747 1.19676 0.815603 0.746993 0.822028 0.721749 1.19064 0.722007 1.19707 0.728086 0.809302 0.753136 1.19697 0.734207 0.815764 1.19081 0.734422 0.759577 1.19042 0.828285 0.728078 1.19687 0.759466 0.815394 0.722091 1.19669 0.821664 0.753375 0.721851 1.1906 1.19702 0.727902 1.19678 0.728339 0.734145 0.734483 0.928339 1.15956 0.746832 0.734127 0.728232 0.734213 0.921932 1.16547 1.15931 0.921757 0.740708 1.16581 0.934133 0.753031 0.727893 0.921693 1.16576 0.715631 0.759458 1.16542 1.15301 0.715832 0.928132 0.74694 0.721986 1.16574 0.909572 0.722094 0.759433 1.16562 0.915789 1.17207 0.715572 0.90913 1.16572 0.915584 0.709333 1.17166 0.72181 0.71586 1.17171 0.915629 0.709589 1.17211 0.728061 0.922109 0.728169 1.1719 0.721829 0.921956 0.721967 1.17174 0.721894 1.17169 0.940849 0.734561 1.17171 0.734611 0.940684 1.17804 0.740575 1.16566 0.928048 1.16542 0.740441 1.16555 0.9344 1.17187 1.17199 1.17816 0.734209 0.94665 1.16556 0.953341 0.747002 1.16541 1.17196 0.946719 0.740868 1.16562 0.934574 0.728272 1.17209 0.734428 0.928301 1.17809 0.740874 0.734156 0.928226 0.727936 1.17824 0.740729 0.940692 1.17811 0.734539 0.934306 1.18444 0.740697 1.17176 0.909595 1.17205 0.747061 1.17832 1.17168 1.17834 0.746736 1.18446 0.75297 1.17808 0.903018 0.734325 1.17811 0.909172 0.752889 0.740483 0.915618 1.18462 0.734387 0.747026 0.897053 1.17817 0.740585 1.17799 0.740773 0.89074 0.753014 1.19086 0.746791 0.890391 0.74075 0.746727 0.89057 1.19064 0.747101 0.902894 1.18435 0.752928 0.896805 0.746939 1.1782 0.740782 0.753359 0.896649 1.17817 0.740586 0.759546 0.915398 0.746789 1.18439 0.752881 0.921884 1.18441 0.765856 1.18428 0.90312 0.753083 0.765624 1.19062 0.921815 0.74664 1.19701 0.928199 0.77164 0.753065 1.19085 0.90936 0.753344 0.915689 1.1968 0.784139 1.19677 0.759269 0.909199 0.778352 1.19672 0.752882 1.19041 0.784255 0.903115 1.18454 0.915669 0.778322 0.915742 0.759422 0.771895 0.909215 0.959615 0.953341 0.765865 0.953117 1.19058 0.965434 0.772076 0.953245 0.759218 1.19711 0.959315 0.765393 0.759295 0.946741 1.19047 0.940507 0.765469 0.778255 0.934243 0.759504 1.19683 0.959151 0.78449 0.759338 0.947029 1.19057 0.765844 0.778368 0.940462 0.76543 1.19702 0.771712 1.18436 0.959603 0.965765 0.765799 0.965511 0.959528 0.978321 0.972014 0.971664 0.79692 0.971844 0.771671 1.17819 0.965808 0.790874 0.771856 1.19079 0.965771 0.790726 0.746649 1.18427 0.952953 0.797085 0.7471 0.97169 1.18454 0.972051 0.803001 0.753249 1.18422 0.928081 0.75291 0.796685 1.18429 0.759595 0.928116 1.18416 0.802927 1.19062 0.753297 0.921759 0.790489 0.759569 0.934483 0.796682 0.759601 0.934232 1.18425 0.790518 0.753221 1.1908 0.934282 0.746725 0.78431 1.19062 0.759244 0.921756 0.803038 0.759618 0.803296 0.915671 0.7658 1.19064 0.796851 0.765618 0.921668 1.19666 0.772053 0.765471 0.92807 0.771817 1.19687 0.75923 0.921845 0.778288 1.19712 0.928329 0.765667 0.778208 1.19696 0.946675 0.771986 0.75932 0.765517 0.946735 0.771878 0.9405 1.19081 0.777988 0.772085 0.940707 0.959469 0.784477 0.778147 1.19056 0.784587 0.953271 0.772003 0.77801 0.784257 0.771774 1.1906 0.947022 0.784286 0.765558 1.19694 0.934502 1.19675 0.765429 0.934573 1.19696 0.946702 0.765729 1.02192 0.940485 1.02198 1.02211 1.02788 0.940556 0.772081 1.02825 1.02803 1.02196 0.772009 1.01546 1.02179 0.940755 1.01565 1.02797 1.02799 1.02824 0.884549 0.77822 1.04059 1.03441 0.878118 1.04044 0.784208 1.0407 1.04688 0.871999 1.03456 0.753229 1.03413 1.03449 0.890639 1.0404 1.04073 0.878214 0.784156 0.884458 1.04059 1.02171 1.02163 0.790695 0.865456 1.01566 1.02809 1.02824 1.02169 0.797009 0.853106 1.01555 1.01561 1.02163 0.803278 1.028 1.02171 1.02197 0.803149 0.859541 0.753077 1.03432 1.04074 0.746945 0.803034 0.865537 1.02822 0.753192 1.03416 1.04709 0.872021 1.04075 0.7531 0.790565 1.03428 0.865396 1.02832 1.03452 1.02796 0.859343 1.04076 0.777984 0.75921 1.03452 1.03449 0.890795 1.04676 0.790464 1.05326 0.752955 1.04683 1.05291 0.797116 1.05325 0.896863 1.05931 0.759316 1.04067 0.803218 1.04703 0.884586 1.04708 1.04682 0.796655 0.759577 1.05956 1.05321 0.903179 1.06543 0.803336 0.759569 1.06545 1.05954 1.06572 0.896848 0.796839 1.06557 0.753127 1.07169 0.890787 1.06539 1.05939 1.07185 0.765751 0.88445 1.06568 1.06581 1.05326 0.8782 1.05303 1.04682 0.759136 1.05932 0.871922 1.05337 1.05313 1.04038 0.765496 0.890462 1.04701 1.04693 0.878083 1.04081 1.05336 0.765776 1.04674 0.87196 1.05315 1.05949 1.05926 0.765653 0.740379 0.840606 1.05915 1.05956 0.772036 1.06567 0.84667 0.715688 1.06586 1.06552 0.771907 1.05297 1.05917 1.05925 0.840863 1.07191 0.771674 1.06582 1.01585 1.01566 1.00932 1.02183 0.853154 0.759141 1.02202 0.728316 1.01565 1.00956 1.0029 0.852994 1.01571 0.765489 1.0096 1.00923 1.02794 0.76563 1.02799 1.03437 0.846872 0.753265 1.04067 1.03451 1.02165 0.765731 1.01585 0.747049 1.02183 0.847054 0.771838 1.01586 1.02809 0.75329 0.771866 1.02181 0.83452 1.02794 1.00316 0.772038 0.746808 1.00307 1.00929 1.00311 0.73443 0.77169 0.997044 0.828321 0.990428 0.765794 0.996728 0.990554 0.777982 0.828078 1.00323 0.759145 1.00318 0.996833 1.0217 0.821707 1.01548 0.759188 1.00941 0.784432 1.02826 0.759255 1.01559 1.00922 0.740457 0.778165 1.00925 0.834172 1.00304 1.02201 0.77792 0.734409 1.01561 1.00925 0.784418 0.840397 1.01573 0.734336 1.04703 0.834336 1.04053 1.04072 1.05314 0.746816 1.04669 0.859374 1.0344 0.740858 1.04087 0.859317 1.02819 0.765788 1.03418 0.740663 1.04663 1.04065 0.759598 1.03413 0.853295 1.05328 0.746846 1.05323 0.759184 1.05942 0.865678 1.05927 0.759349 1.06548 1.05335 0.709131 1.04688 0.759212 0.865652 1.04695 1.0595 0.765396 1.0594 1.05301 0.865694 0.765668 0.709352 1.03434 0.765404 1.028 0.84673 1.02808 1.03413 1.04048 0.772112 1.04044 0.840836 1.03433 0.72791 0.772018 1.0221 1.01578 0.840693 1.02799 0.759498 1.02792 0.728134 1.02195 1.04705 0.759199 1.04667 0.715778 0.853047 1.05288 0.765784 1.05333 1.04686 1.03458 0.709349 1.0406 0.859303 1.03461 0.77172 0.703258 1.04697 0.765641 0.846783 1.04058 1.04087 0.709201 0.76543 1.0719 1.07796 0.846892 1.07181 1.08418 0.777934 1.07797 1.07815 0.715875 0.903031 1.08447 0.771928 1.07163 0.896831 0.722075 0.778237 1.07835 1.07164 1.08446 0.71563 0.778077 1.07808 1.07796 1.08449 1.0905 0.78432 1.09047 1.09663 0.903071 1.09051 1.09684 1.09054 0.784239 1.08442 0.909225 1.09044 1.08435 1.0968 0.92821 0.778035 0.728254 0.784204 1.09696 0.790807 0.740687 1.09068 1.07189 1.07187 0.746858 1.07796 0.909289 0.772036 1.07826 1.08435 1.0779 0.778239 0.897116 0.746821 0.77177 1.07206 0.884529 1.06587 0.740766 0.777886 1.07821 0.884219 1.07188 1.0782 0.734473 0.778058 1.08415 0.903141 1.08439 1.09067 0.784261 0.890804 1.09078 0.728246 1.09058 0.784459 0.890447 1.09706 1.0844 1.08414 0.790449 0.896957 0.753364 1.09079 0.796776 1.09689 0.921871 0.746747 1.10318 1.10336 0.790568 1.10956 0.74668 0.934612 1.10932 0.790695 1.09695 1.10313 0.797016 0.740851 1.09674 1.10302 1.10933 1.10943 0.915663 1.10326 0.803165 1.12173 0.771743 1.11543 0.78446 1.11571 0.765806 0.790744 1.1158 0.915421 1.12798 0.796829 1.1221 0.772119 1.11562 0.784386 1.10918 1.12196 0.928279 1.11543 1.0969 0.796631 0.778252 0.922117 0.909589 0.784241 1.10337 0.79082 0.896893 1.10332 0.784163 1.10303 0.803013 0.909507 1.10943 1.10946 0.777895 0.796979 1.09677 0.921837 1.10334 0.752982 1.09676 0.809236 1.1155 0.915745 1.10928 0.759372 0.803317 1.11552 0.903255 1.11586 1.10322 0.752985 0.809219 1.12207 0.909355 1.10949 0.759423 0.809408 1.10306 0.878084 1.10924 0.815843 1.10298 0.77197 1.11558 0.872023 1.10943 1.12177 0.765863 0.778155 1.0658 1.07163 1.078 0.765544 1.07209 0.771835 0.877933 1.07178 1.06553 1.06559 0.765855 0.772005 1.05955 1.07207 1.072 0.872083 1.06567 0.77163 0.79044 1.07806 0.884203 1.09058 0.77791 1.08436 0.796955 1.07798 1.09044 0.8846 1.09039 0.778222 0.790497 1.08458 0.878191 1.07827 0.777945 1.07796 0.790679 0.865758 1.07196 1.08414 0.778229 1.08461 0.802976 1.078 0.853372 1.08425 0.778175 1.05923 0.802905 1.06543 1.05957 0.78436 0.79705 0.853026 1.06559 0.784488 1.06577 0.78451 0.872115 0.79084 1.05933 0.777999 1.05311 1.05333 0.865699 1.04691 0.777941 0.784246 1.05933 1.05302 0.784134 1.07182 0.859464 1.07188 0.784475 1.07826 0.796638 1.07791 0.778166 1.07166 0.859382 0.790744 1.06547 1.05913 1.06539 0.78421 0.890504 0.803317 1.07803 0.784516 1.07187 0.890454 0.790756 0.790412 1.06562 1.09675 0.796998 0.784145 0.884447 1.09688 0.796898 1.0908 1.10294 1.10922 0.753136 0.79043 1.0971 0.765793 0.796941 0.903209 1.0906 1.08448 0.75915 1.09693 0.790616 1.09074 1.09086 0.903326 0.771677 1.11562 0.790584 0.896698 1.10295 0.796625 0.765568 1.0969 0.89671 1.12208 0.790672 0.771838 1.10332 0.796784 1.1096 0.871649 1.10294 0.765637 1.09666 0.802998 1.10945 0.75321 1.10962 1.10325 0.877932 0.759303 0.803124 1.08423 1.08413 0.777882 1.07824 0.752941 1.09044 0.86563 1.09695 1.08423 0.78422 1.07822 0.759308 1.08425 0.784587 0.878161 0.76555 0.771731 0.784429 1.07194 0.890685 1.07211 0.771915 1.0904 0.790638 0.75919 1.08417 0.884512 0.802908 0.784326 1.09043 1.10332 0.79052 1.09087 0.778248 1.10305 0.871815 1.09709 0.790626 0.784436 1.09708 1.10947 1.10945 0.778033 0.796948 1.09059 0.88433 0.790395 0.790768 0.796809 0.790639 1.09692 0.884205 0.796724 0.778205 0.802955 1.09671 0.777905 0.896887 0.803257 0.7843 1.10289 0.796921 0.790819 0.890493 0.98433 0.797119 0.978354 0.98446 0.784495 0.978118 0.809285 0.99066 0.790628 0.984175 0.89678 0.990771 0.990828 0.978203 0.809189 0.978071 0.821744 0.890781 0.984601 0.803344 0.990389 0.815395 0.984621 0.996692 0.815535 0.997017 0.902934 0.996645 1.00306 0.809367 1.00333 0.815566 1.00925 0.990813 0.997109 0.903191 0.996906 0.815531 0.834414 1.00331 1.00316 0.809208 0.828007 0.984262 0.909158 0.82208 0.815496 0.809215 0.815611 0.90923 0.821773 0.959517 0.815675 0.821676 0.965779 0.809496 0.803106 0.915837 0.80925 0.796784 0.953263 0.915646 0.80314 0.971892 0.815726 0.915553 0.797097 0.971974 0.80915 0.821786 0.80303 0.921747 0.809499 0.965436 0.827908 0.896868 0.809622 0.821893 0.80331 0.840795 0.903164 0.809437 0.952934 0.834602 0.809562 0.909526 0.809224 0.840522 0.815673 0.909511 0.959204 0.815814 0.828253 0.903236 0.815791 0.921735 0.809571 0.853098 0.947083 0.815559 0.846897 0.909492 0.821805 0.965675 0.821651 0.921937 0.815406 0.846726 0.953052 0.92831 0.840761 0.82806 0.921834 0.834518 0.821801 0.927947 0.959549 0.834433 0.821691 0.934437 0.815875 0.978215 0.846962 0.977911 0.822122 0.84068 0.93432 0.972024 0.827968 0.92823 0.846958 0.984168 0.834386 0.915432 0.815579 0.990431 0.828287 0.921829 0.809235 0.821719 0.978126 0.809352 0.922037 0.81576 0.971835 0.815849 0.821989 0.934307 0.821923 0.827925 0.965598 0.92803 0.822089 0.828237 0.921959 0.821843 0.821834 0.946856 0.965756 0.828309 0.834374 0.971772 0.940559 0.828068 0.828284 0.977935 0.934573 0.809623 0.827887 0.815438 0.927961 0.834449 0.965592 1.01574 0.834275 0.809424 1.00957 1.01574 0.840817 1.02211 0.953148 0.822015 1.02803 0.834279 1.0221 1.00924 0.821995 1.00933 0.934365 0.828353 1.01586 0.815485 0.928164 0.834416 1.01555 0.834217 0.834281 1.0154 1.03439 0.94041 1.02791 1.04042 1.03451 1.02207 0.840573 0.840563 1.02168 0.840708 0.94084 0.834202 1.02194 0.846755 0.947113 1.02816 0.840444 0.834209 0.946855 1.02799 0.846627 0.840392 0.940526 1.02789 0.846867 0.840657 0.997091 0.940489 0.840706 0.846698 0.990536 0.846662 0.828256 1.0033 0.959354 0.859187 0.996981 0.953102 0.834298 0.852996 0.984247 0.946644 0.828246 0.984322 0.709449 0.828331 0.959281 0.978089 0.840659 0.990751 0.715795 0.996996 0.915647 0.709463 0.83454 0.990784 0.915504 0.984245 0.84062 0.928039 0.71546 0.934193 1.00923 0.853313 0.727882 1.00914 0.922081 0.859549 1.00295 0.709325 0.940683 1.01557 0.853101 0.921823 1.01553 1.00324 0.865399 0.934517 0.709502 0.997121 0.721837 0.865786 0.940383 0.990541 0.722029 0.940534 1.00337 0.859236 0.947004 0.722026 0.959233 1.00954 0.86563 0.734199 0.99665 0.740522 0.92834 0.85322 1.00335 0.740771 0.927993 0.85948 0.753038 0.934573 0.947085 0.740658 0.852991 0.934296 0.746708 0.859204 0.940473 0.746686 0.934505 0.95331 0.865503 0.753278 0.928304 0.946819 0.746764 0.865429 0.734178 0.946653 0.94682 0.740621 0.959592 0.877938 0.734372 0.953349 0.871664 0.72814 0.953091 0.953242 0.753075 0.878225 0.965622 0.959427 0.752924 0.940755 0.871752 0.759602 0.946807 0.927885 0.747053 0.953092 0.878357 0.884577 0.915582 0.884339 0.703224 0.952897 0.878223 0.715779 0.90935 0.95298 0.959184 0.715779 0.871703 0.934172 0.728203 0.959232 0.871738 0.934528 0.728002 0.871918 0.928035 0.721689 0.965867 0.921674 0.884185 0.959419 0.884405 0.959268 0.978161 0.878292 0.953043 0.971693 0.884504 0.728108 0.940384 0.859211 0.96553 0.734168 0.965469 0.852921 0.953243 0.734489 0.98415 0.853361 0.946697 0.865543 0.953016 0.740469 0.859146 0.971814 0.853202 0.940455 0.740448 0.96582 0.740554 0.846699 0.753327 0.846686 0.978174 0.940598 0.747028 0.965593 0.734543 0.859185 0.971675 0.740757 0.859373 0.934429 0.859343 0.946788 0.977918 0.852994 0.740644 0.87189 0.746859 0.871783 0.746643 0.940436 0.984255 0.865434 0.746669 0.971969 0.878276 0.752929 0.915853 0.978344 0.884461 0.759315 0.972026 0.878348 0.765853 0.909595 0.865789 0.759388 0.871788 0.990445 0.902998 0.765542 0.865565 0.984589 0.759226 0.915466 0.87829 1.00308 0.772073 0.871739 0.990499 0.921858 0.76544 0.878089 0.771924 0.909493 0.81542 0.759343 0.947112 0.809568 0.896942 0.7655 0.815498 0.765811 0.809166 0.953088 0.87815 0.778211 0.822009 0.771674 0.946878 0.815437 0.884425 0.777881 0.822016 0.953069 0.771909 0.809212 0.778057 0.890444 0.959415 0.784504 0.802993 0.959507 0.77819 0.809422 0.902918 0.784136 0.81558 0.971762 0.965852 0.897003 0.79054 0.822074 0.790506 0.965529 0.809292 0.909139 0.790651 0.827975 0.7782 0.965551 0.890656 0.834279 0.784418 0.971986 0.828027 0.784145 0.978334 0.927991 0.784344 0.92197 0.790649 0.840448 0.965811 0.790472 0.83446 0.915687 0.959586 0.77193 0.840625 0.934323 0.965825 0.765569 0.827903 0.928294 0.759321 0.821724 0.965816 0.921921 0.765458 0.822008 0.927946 0.971957 0.777939 0.834556 0.915779 0.771932 0.978323 0.83424 0.777881 0.971934 0.896666 0.834578 0.759553 0.971976 0.753293 0.796869 0.978274 0.902992 0.796871 0.753242 0.921643 0.984289 0.802992 0.75934 0.802955 0.98414 0.909227 0.765726 0.797023 0.978029 0.772011 0.809379 0.902942 0.990765 0.809292 0.96584 0.765823 0.971898 0.978138 0.81584 0.977897 0.971903 0.959255 0.778113 0.796949 0.984487 0.984276 0.965571 0.990592 0.784616 0.803163 0.984352 0.99057 0.790454 0.978021 0.990598 0.996856 0.796928 0.984429 0.996858 0.784342 0.990819 0.990732 0.965426 0.803304 0.797081 0.990843 0.97833 1.00303 0.809296 0.996766 0.790714 0.996707 1.00303 0.803351 0.796826 0.996785 1.00927 0.971765 1.0033 0.797104 0.809615 0.95962 0.815756 0.977894 0.778357 0.953362 0.82187 0.984473 0.790668 0.821816 0.984361 0.784189 0.946719 0.828227 0.984305 0.796902 0.834484 0.990752 0.790422 0.828152 0.990715 0.959233 0.79707 0.828292 0.96578 0.990638 0.822012 0.996695 0.953346 0.815661 0.996725 0.984457 0.815537 0.997095 0.815555 1.0031 0.984135 0.828337 0.996876 0.978175 0.828303 0.990768 0.821668 1.00327 0.997084 0.990509 1.0092 0.846769 0.98461 0.715673 0.971965 1.00925 0.965514 0.847122 1.00303 0.959197 0.721818 1.00288 0.728308 0.846921 0.972088 1.0095 0.734292 1.01545 0.853306 0.978329 1.00918 0.859255 1.01539 0.978057 0.853133 0.753011 1.01581 0.965759 0.846627 1.00309 0.759409 1.00333 0.934612 0.840737 0.947101 1.00947 0.840619 0.747065 0.934196 1.01585 0.853124 1.00935 1.01567 0.940516 1.00937 0.759167 1.02173 0.853244 1.02795 0.947007 1.02192 1.01568 0.746676 0.847028 0.940465 1.00932 0.746965 0.852951 1.01574 0.928154 0.740745 1.01559 0.865828 1.02205 0.915761 0.865861 0.753021 1.02208 0.909185 0.859158 0.759242 1.02209 0.871633 0.915469 0.87789 1.02821 0.752905 0.928155 1.02818 0.877934 1.02807 0.934558 0.752919 1.03416 0.865529 1.03439 1.04081 0.921868 0.721884 0.871712 0.940686 0.872122 0.715494 0.922069 0.859186 0.946706 0.952978 0.965728 0.959447 0.703239 0.865536 0.946882 0.859582 0.953266 0.728143 0.965504 0.871717 0.947089 0.721787 0.871952 0.953278 0.959547 0.734149 0.865685 0.959381 0.940381 0.840739 0.703344 0.97211 0.947056 0.840638 0.971718 0.709276 0.834532 0.971772 0.928333 0.715409 0.978181 0.847106 0.934348 0.709417 0.978294 0.840485 0.953038 0.940646 0.846995 0.959625 0.727947 0.834241 0.93449 0.721658 0.95297 0.834559 0.715789 0.940438 0.965861 0.834418 1.04672 0.721947 0.971928 1.0405 0.84044 1.04038 0.740793 1.05301 0.965695 0.846728 0.734152 1.04706 1.04667 0.98458 0.840465 0.740392 0.977977 1.03432 0.852886 0.753041 0.990527 1.03423 0.859232 0.75914 1.03452 0.984506 0.853349 1.04059 0.984243 0.859484 0.759297 1.04055 0.997041 1.05921 0.865508 0.746684 1.05322 0.996706 1.05298 0.990384 0.734523 0.865691 1.05936 0.859232 0.728303 1.06553 0.984512 0.846827 1.05915 0.977915 0.734589 0.853069 1.04671 0.846706 0.990739 1.05306 0.746785 0.859274 0.984266 1.04664 0.852906 0.753252 0.990668 1.05333 0.859289 1.05917 0.74688 0.709213 0.990418 1.02171 0.740587 0.996769 1.02176 0.996958 0.753162 1.01551 0.997095 0.709283 1.02809 0.715605 0.765657 1.00302 0.728008 1.02826 1.00305 0.77209 0.72199 1.00915 0.996703 0.765568 1.0096 0.715592 0.996653 1.02173 0.777938 1.00322 1.02207 1.01547 0.715438 1.01558 1.0094 0.77181 0.721861 1.04068 1.0093 0.721976 1.03438 0.778042 1.00937 1.03448 0.734419 1.04071 0.765551 1.01574 0.734196 1.0468 1.02173 0.771713 0.746698 1.04665 1.02172 1.0408 0.765623 0.740718 1.022