# vtk DataFile Version 3.0
vtk output
ASCII
DATASET UNSTRUCTURED_GRID
POINTS 35474 float
0 0 0
1 0 0
1 1 0
0 1 0
0 0 0
0 0 0
1 0 0
1 1 0
0 1 0
0 0 0
0 0 0
1 0 0
1 1 0
0 1 0
0 0 0
0 0 0
1 0 0
1 1 0
0 1 0
0 0 0
0 0 0
1 0 0
1 1 0
0 1 0
0 0 0
0 0 0
1 0 0
1 1 0
0 1 0
0 0 0
0 0 0
1 0 0
1 1 0
0 1 0
0 0 0
0 0 0
1 0 0
1 1 0
0 1 0
0 0 0
0 0 0
1 0 0
1 1 0
0 1 0
0 0 0
0 0 0
1 0 0
1 1 0
0 1 0
0 0 0
0 0 0
1 0 0
1 1 0
0 1 0
0 0 0
0 0 0
1 0 0
1 1 0
0 1 0
0 0 0
0 0 0
1 0 0
1 1 0
0 1 0
0 0 0
0 0 0
1 0 0
1 1 0
0 1 0
0 0 0
0.454933 0 0
1 0 0
1 0.813724 0
0.726816 0.423239 0
0.454933 0 0
0 0 0
1 0 0
1 1 0
0 1 0
0 0 0
0 0 0
1 0 0
1 1 0
0 1 0
0 0 0
0 0 0
1 0 0
1 1 0
0 1 0
0 0 0
0 0 0
1 0 0
1 1 0
0 1 0
0 0 0
0 0 0
1 0 0
1 1 0
0 1 0
0 0 0
0.129731 0 0
1 0 0
1 0.582271 0
0.505972 0.262023 0
0.129731 0 0
0 0 0
1 0 0
1 1 0
0 1 0
0 0 0
0 0 0
1 0 0
1 1 0
0 1 0
0 0 0
0 0 0
1 0 0
1 1 0
0 1 0
0 0 0
0 0 0
1 0 0
1 1 0
0 1 0
0 0 0
0 0 0
1 0 0
1 1 0
0 1 0
0 0 0
0.646903 0.31509 0
0.243517 0 0
1 0 0
1 0.566229 0
0.678279 0.338391 0
0.646903 0.31509 0
0 0 0
1 0 0
1 1 0
0 1 0
0 0 0
0 0 0
1 0 0
1 1 0
0 1 0
0 0 0
0 0 0
1 0 0
1 1 0
0 1 0
0 0 0
0 0 0
1 0 0
1 1 0
0 1 0
0 0 0
0.647307 0.314612 0
0.269559 0 0
1 0 0
1 0.582511 0
0.678069 0.338985 0
0.647307 0.314612 0
0 0 0
1 0 0
1 1 0
0 1 0
0 0 0
0.354446 0 0
1 0 0
1 0.571327 0
0.791221 0.395244 0
0.354446 0 0
0 0 0
1 0 0
1 1 0
0 1 0
0 0 0
0 0 0
1 0 0
1 1 0
0 1 0
0 0 0
0 0 0
1 0 0
1 1 0
0 1 0
0 0 0
0 0 0
1 0 0
1 1 0
0 1 0
0 0 0
0.640925 0 0
1 0 0
1 0.570399 0
0.781736 0.23144 0
0.640925 0 0
0 0 0
1 0 0
1 1 0
0 1 0
0 0 0
0 0 0
1 0 0
1 1 0
0 1 0
0 0 0
0 0 0
1 0 0
1 1 0
0 1 0
0 0 0
0.641242 0 0
1 0 0
1 0.542635 0
0.789565 0.231465 0
0.641242 0 0
0 0 0
1 0 0
1 1 0
0 1 0
0 0 0
0 0 0
1 0 0
1 1 0
0 1 0
0 0 0
0.649285 0 0
1 0 0
1 0.575932 0
0.785485 0.231452 0
0.649285 0 0
0 0 0
1 0 0
1 1 0
0 1 0
0 0 0
0 0 0
1 0 0
1 1 0
0 1 0
0 0 0
0 0 0
1 0 0
1 1 0
0 1 0
0 0 0
0.659679 0 0
1 0 0
1 0.498621 0
0.784874 0.191057 0
0.659679 0 0
0 0 0
1 0 0
1 1 0
0 1 0
0 0 0
0 0 0
1 0 0
1 1 0
0 1 0
0 0 0
0 0 0
1 0 0
1 1 0
0 1 0
0 0 0
0 0 0
1 0 0
1 1 0
0 1 0
0 0 0
0 0 0
1 0 0
1 1 0
0 1 0
0 0 0
0.690847 0 0
1 0 0
1 0.536392 0
0.792625 0.191642 0
0.690847 0 0
0 0 0
1 0 0
1 1 0
0 1 0
0 0 0
0 0 0
1 0 0
1 1 0
0 1 0
0 0 0
0 0 0
1 0 0
1 1 0
0 1 0
0 0 0
0.648623 0 0
1 0 0
1 0.606075 0
0.777883 0.231427 0
0.648623 0 0
0 0 0
1 0 0
1 1 0
0 1 0
0 0 0
0 0 0
1 0 0
1 1 0
0 1 0
0 0 0
0 0 0
1 0 0
1 1 0
0 1 0
0 0 0
0 0 0
0.0151288 0 0
0 0.0155108 0
0 0 0
0 0 0
1 0 0
1 1 0
0 1 0
0 0 0
0 0 0
1 0 0
1 1 0
0 1 0
0 0 0
0 0 0
1 0 0
1 1 0
0 1 0
0 0 0
0.608876 0 0
1 0 0
1 0.493298 0
0.818919 0.272227 0
0.618651 0.0132441 0
0.608876 0 0
0 0 0
1 0 0
1 1 0
0 1 0
0 0 0
0 0 0
1 0 0
1 1 0
0 1 0
0 0 0
0 0 0
1 0 0
1 1 0
0 1 0
0 0 0
0.657628 0 0
1 0 0
1 0.615461 0
0.781575 0.231439 0
0.657628 0 0
0 0 0
1 0 0
1 1 0
0 1 0
0 0 0
0 0 0
1 0 0
1 1 0
0 1 0
0 0 0
0 0 0
1 0 0
1 1 0
0 1 0
0 0 0
0.688649 0 0
1 0 0
1 0.457893 0
0.688649 0 0
0 0 0
1 0 0
1 1 0
0 1 0
0 0 0
0 0 0
1 0 0
1 1 0
0 1 0
0 0 0
0.688842 0 0
1 0 0
1 0.483898 0
0.688842 0 0
0 0 0
1 0 0
1 1 0
0 1 0
0 0 0
0 0 0
1 0 0
1 1 0
0 1 0
0 0 0
0 0 0
0.00839567 0 0
0 0.00892712 0
0 0 0
0 0 0
1 0 0
1 1 0
0 1 0
0 0 0
0 0 0
1 0 0
1 1 0
0 1 0
0 0 0
0.707809 0 0
1 0 0
1 0.402046 0
0.83323 0.180483 0
0.732978 0.0385019 0
0.707809 0 0
0 0 0
1 0 0
1 1 0
0 1 0
0 0 0
0 0 0
1 0 0
1 1 0
0 1 0
0 0 0
0.675082 0 0
1 0 0
1 0.564639 0
0.780434 0.192002 0
0.675082 0 0
0 0 0
0.0263709 0 0
0 0.0313871 0
0 0 0
0 0 0
1 0 0
1 1 0
0 1 0
0 0 0
0 0 0
1 0 0
1 1 0
0 1 0
0 0 0
0 0 0
0.00235324 0 0
0 0.00233554 0
0 0 0
0.668427 0 0
1 0 0
1 0.531279 0
0.782783 0.191502 0
0.668427 0 0
0 0 0
1 0 0
1 1 0
0 1 0
0 0 0
0 0 0
1 0 0
1 1 0
0 1 0
0 0 0
0.697946 0 0
1 0 0
1 0.488593 0
0.697946 0 0
0 0 0
1 0 0
1 1 0
0 1 0
0 0 0
0 0 0
0.000560433 0 0
0 0.000462135 0
0 0 0
0 0 0
1 0 0
1 1 0
0 1 0
0 0 0
0 0 0
1 0 0
1 1 0
0 1 0
0 0 0
0.705182 0 0
1 0 0
1 0.613113 0
0.788699 0.191688 0
0.705182 0 0
0 0 0
1 0 0
1 1 0
0 1 0
0 0 0
0 0 0
1 0 0
1 1 0
0 1 0
0 0 0
0 0 0
1 0 0
1 1 0
0 1 0
0 0 0
0 0 0
1 0 0
1 1 0
0 1 0
0 0 0
0 0 0
0.0213405 0 0
0 0.0197739 0
0 0 0
0 0 0
1 0 0
1 1 0
0 1 0
0 0 0
0.60399 0 0
1 0 0
1 0.573048 0
0.917998 0.460448 0
0.60399 0 0
0 0 0
1 0 0
1 1 0
0 1 0
0 0 0
0 0 0
1 0 0
1 1 0
0 1 0
0 0 0
0 0 0
0.0392419 0 0
0 0.0410517 0
0 0 0
0.619696 0 0
1 0 0
1 0.520683 0
0.813268 0.272813 0
0.620316 0.000913974 0
0.619696 0 0
0 0 0
1 0 0
1 1 0
0 1 0
0 0 0
0 0 0
0.0522244 0 0
0 0.0610283 0
0 0 0
0 0 0
1 0 0
1 1 0
0 1 0
0 0 0
0 0 0
1 0 0
1 1 0
0 1 0
0 0 0
0 0 0
0.0121567 0 0
0 0.0117948 0
0 0 0
0 0 0
1 0 0
1 1 0
0 1 0
0 0 0
0.580665 0 0
1 0 0
1 0.550999 0
0.851823 0.367386 0
0.806204 0.308174 0
0.580665 0 0
0 0 0
1 0 0
1 1 0
0 1 0
0 0 0
0 0 0
1 0 0
1 1 0
0 1 0
0 0 0
0 0 0
0.0906439 0 0
0 0.117836 0
0 0 0
0 0 0
1 0 0
1 1 0
0 1 0
0 0 0
0 0 0
1 0 0
1 1 0
0 1 0
0 0 0
0.545389 0 0
1 0 0
1 0.553658 0
0.706642 0.206326 0
0.545389 0 0
0 0 0
0.0356759 0 0
0 0.0352149 0
0 0 0
0 0 0
1 0 0
1 1 0
0 1 0
0 0 0
0 0 0
1 0 0
1 1 0
0 1 0
0 0 0
0 0 0
0.0787045 0 0
0 0.0875206 0
0 0 0
0 0 0
0.0154121 0 0
0 0.0132606 0
0 0 0
0.612079 0 0
1 0 0
1 0.601779 0
0.897546 0.451004 0
0.612079 0 0
0 0 0
1 0 0
1 1 0
0 1 0
0 0 0
0 0 0
0.0445228 0 0
0.756853 0.478306 0
1 0.651603 0
1 1 0
0 1 0
0 0 0
0 0 0
1 0 0
1 1 0
0 1 0
0 0 0
0 0 0
0.0628701 0 0
0 0.0618962 0
0 0 0
0 0 0
1 0 0
1 1 0
0 1 0
0 0 0
0.628198 0 0
1 0 0
1 0.549798 0
0.807291 0.273433 0
0.628198 0 0
0 0 0
0.00511458 0 0
0.798191 0.515056 0
1 0.64968 0
1 1 0
0 1 0
0 0 0
0 0 0
1 0 0
1 1 0
0 1 0
0 0 0
0 0 0
0.0904426 0 0
0 0.111532 0
0 0 0
0 0 0
1 0 0
1 1 0
0 1 0
0 0 0
0.561864 0 0
1 0 0
1 0.52138 0
0.912902 0.422325 0
0.675833 0.141631 0
0.561864 0 0
0 0 0
1 0 0
1 1 0
0 1 0
0 0 0
0 0 0
0.0767078 0 0
0 0.0808327 0
0 0 0
0 0 0
0.164427 0 0
0.801049 0.505639 0
1 0.668649 0
1 1 0
0 1 0
0 0 0
0 0 0
1 0 0
1 1 0
0 1 0
0 0 0
0 0 0
0.12055 0 0
0.0649992 0.0835811 0
0 0.172645 0
0 0 0
0 0 0
1 0 0
1 1 0
0 1 0
0 0 0
0 0 0
1 0 0
1 1 0
0 1 0
0 0 0
0.659794 0 0
1 0 0
1 0.649663 0
0.776068 0.231421 0
0.659794 0 0
0 0 0
1 0 0
1 1 0
0 1 0
0 0 0
0 0 0
0.190302 0 0
0.842468 0.530766 0
1 0.665923 0
1 1 0
0 1 0
0 0 0
0 0 0
1 0 0
1 1 0
0 1 0
0 0 0
0 0 0
1 0 0
1 1 0
0 1 0
0 0 0
0 0 0
1 0 0
1 1 0
0 1 0
0 0 0
0 0 0
0.120894 0 0
0.060939 0.0854269 0
0 0.164694 0
0 0 0
0 0 0
1 0 0
1 1 0
0 1 0
0 0 0
0.685609 0 0
1 0 0
1 0.601831 0
0.780835 0.191917 0
0.685609 0 0
0 0 0
1 0 0
1 1 0
0 1 0
0 0 0
0 0 0
1 0 0
1 1 0
0 1 0
0 0 0
0 0 0
1 0 0
1 1 0
0 1 0
0 0 0
0.667708 0 0
1 0 0
1 0.654336 0
0.780456 0.231435 0
0.667708 0 0
0 0 0
1 0 0
1 1 0
0 1 0
0 0 0
0 0 0
1 0 0
1 1 0
0 1 0
0 0 0
0 0 0
1 0 0
1 1 0
0 1 0
0 0 0
0 0 0
1 0 0
1 1 0
0 1 0
0 0 0
0 0 0
0.192098 0 0
0.534845 0.253763 0
0.834603 0.484787 0
1 0.615861 0
1 1 0
0 1 0
0 0 0
0 0 0
1 0 0
1 1 0
0 1 0
0 0 0
0 0 0
0.0124595 0 0
0 0.0131041 0
0 0 0
0 0 0
1 0 0
1 1 0
0 1 0
0 0 0
0.673948 0 0
1 0 0
1 0.697044 0
0.777373 0.231425 0
0.673948 0 0
0 0 0
1 0 0
1 1 0
0 1 0
0 0 0
0 0 0
0.0792354 0 0
0.242461 0.109217 0
0.428051 0.236515 0
0.773401 0.482132 0
1 0.648664 0
1 1 0
0 1 0
0 0 0
0 0 0
1 0 0
1 1 0
0 1 0
0 0 0
0 0 0
0.0026272 0 0
0 0.00327769 0
0 0 0
0 0 0
1 0 0
1 1 0
0 1 0
0 0 0
0 0 0
1 0 0
1 1 0
0 1 0
0 0 0
0 0 0
0.168883 0 0
0.842858 0.523814 0
1 0.652717 0
1 1 0
0 1 0
0 0 0
0 0 0
1 0 0
1 1 0
0 1 0
0 0 0
0.620274 0 0
1 0 0
1 0.467731 0
0.795631 0.231994 0
0.620274 0 0
0 0 0
1 0 0
1 1 0
0 1 0
0 0 0
0 0 0
1 0 0
1 1 0
0 1 0
0 0 0
0 0 0
1 0 0
1 1 0
0 1 0
0 0 0
0 0 0
1 0 0
1 1 0
0 1 0
0 0 0
0 0 0
0.0017219 0 0
0.110309 0.077293 0
0.813596 0.588933 0
1 0.727876 0
1 1 0
0 1 0
0 0 0
0.641502 0 0
1 0 0
1 0.581386 0
0.804446 0.273728 0
0.641502 0 0
0 0 0
1 0 0
1 1 0
0 1 0
0 0 0
0 0 0
0.0227569 0 0
0 0.0267233 0
0 0 0
0 0 0
1 0 0
1 1 0
0 1 0
0 0 0
0 0.0223806 0
0.740522 0.508231 0
1 0.688887 0
1 1 0
0 1 0
0 0.0223806 0
0 0 0
1 0 0
1 1 0
0 1 0
0 0 0
0.625628 0 0
1 0 0
1 0.636326 0
0.879933 0.442872 0
0.625628 0 0
0 0 0
1 0 0
1 1 0
0 1 0
0 0 0
0 0 0
0.0238879 0 0
0 0.0231385 0
0 0 0
0 0 0
1 0 0
1 1 0
0 1 0
0 0 0
0 0.0159539 0
0.796794 0.50813 0
1 0.637189 0
1 1 0
0 1 0
0 0.0159539 0
0 0 0
1 0 0
1 1 0
0 1 0
0 0 0
0.676406 0 0
1 0 0
1 0.740134 0
0.772638 0.23141 0
0.676406 0 0
0 0 0
1 0 0
1 1 0
0 1 0
0 0 0
0 0 0
0.0119181 0 0
0 0.0118713 0
0 0 0
0 0 0
1 0 0
1 1 0
0 1 0
0 0 0
0 0.116356 0
0.680374 0.508447 0
1 0.705667 0
1 1 0
0 1 0
0 0.116356 0
0 0 0
1 0 0
1 1 0
0 1 0
0 0 0
0.739193 0 0
1 0 0
1 0.429384 0
0.85752 0.207821 0
0.739193 0 0
0 0 0
1 0 0
1 1 0
0 1 0
0 0 0
0 0 0
1 0 0
1 1 0
0 1 0
0 0 0
0 0 0
1 0 0
1 1 0
0 1 0
0 0 0
0.716617 0 0
1 0 0
1 0.428123 0
0.830886 0.181032 0
0.737042 0.0344937 0
0.716617 0 0
0 0.0249091 0
0.0891414 0.0878416 0
0.706996 0.542747 0
0.771303 0.591676 0
1 0.77026 0
1 1 0
0 1 0
0 0.0249091 0
0 0 0
1 0 0
1 1 0
0 1 0
0 0 0
0 0 0
0.00931692 0 0
0 0.00713686 0
0 0 0
0 0 0
1 0 0
1 1 0
0 1 0
0 0 0
0 0 0
1 0 0
1 1 0
0 1 0
0 0 0
0 0 0
1 0 0
1 1 0
0 1 0
0 0 0
0 0.0246864 0
0.0802994 0.0786119 0
0.811281 0.580067 0
1 0.712856 0
1 1 0
0 1 0
0 0.0246864 0
0 0 0
1 0 0
1 1 0
0 1 0
0 0 0
0.732837 0 0
1 0 0
1 0.363516 0
0.7513 0.0278925 0
0.746082 0.020457 0
0.732837 0 0
0 0 0
1 0 0
1 1 0
0 1 0
0 0 0
0 0.0430306 0
0.740389 0.503216 0
1 0.674784 0
1 1 0
0 1 0
0 0.0430306 0
0 0 0
0.0113861 0 0
0 0.00941028 0
0 0 0
0 0 0
1 0 0
1 1 0
0 1 0
0 0 0
0.757122 0 0
1 0 0
1 0.319659 0
0.919747 0.221972 0
0.757122 0 0
0 0 0
0.0242572 0 0
0 0.0220539 0
0 0 0
0 0 0
1 0 0
1 1 0
0 1 0
0 0 0
0 0 0
1 0 0
1 1 0
0 1 0
0 0 0
0.704951 0 0
1 0 0
1 0.520257 0
0.704951 0 0
0 0.0364407 0
0.795496 0.501691 0
1 0.624811 0
1 1 0
0 1 0
0 0.0364407 0
0 0 0
1 0 0
1 1 0
0 1 0
0 0 0
0 0 0
1 0 0
1 1 0
0 1 0
0 0 0
0 0 0
0.0274592 0 0
0 0.0208509 0
0 0 0
0 0 0
1 0 0
1 1 0
0 1 0
0 0 0
0.726068 0 0
1 0 0
1 0.455992 0
0.829609 0.181331 0
0.741908 0.0296949 0
0.726068 0 0
0 0 0
1 0 0
1 1 0
0 1 0
0 0 0
0 0 0
1 0 0
1 1 0
0 1 0
0 0 0
0 0 0
0.0611987 0 0
0.830909 0.55539 0
1 0.6803 0
1 1 0
0 1 0
0 0 0
0 0 0
0.0254859 0 0
0 0.0179766 0
0 0 0
0.748716 0 0
1 0 0
1 0.461438 0
0.85373 0.207708 0
0.748716 0 0
0 0 0
1 0 0
1 1 0
0 1 0
0 0 0
0 0 0
1 0 0
1 1 0
0 1 0
0 0 0
0 0 0
[...]
CELL_DATA 6267
FIELD FieldData 3
weight 1 6267 float
 0.928327 0.934318 0.934562 0.940789 0.940412 0.953043 0.952916 0.94706 0.946872 0.959208 0.959576 0.953258 0.946803 0.953108 0.909199 0.946841 0.94674 0.959215 0.952909 0.95947 0.909215 0.965813 0.965741 0.959553 0.971878 0.96577 0.903115 0.972074 0.971786 0.965565 0.965474 0.909225 0.971849 0.903179 0.971993 0.952903 0.946658 0.946685 0.853065 0.95311 0.952981 0.959369 0.84701 0.946768 0.947092 0.852998 0.947003 0.952881 0.959135 0.846914 0.953183 0.959444 0.965399 0.96538 0.971937 0.846948 0.96563 0.972097 0.971698 0.859216 0.95961 0.959142 0.965789 0.72816 0.971907 0.965721 0.971752 0.859236 0.915539 0.921653 0.915786 0.859532 0.921784 0.921689 0.928079 0.846846 0.921933 0.915583 0.853106 0.915476 0.915813 0.709312 0.928098 0.927918 0.84667 0.921631 0.934189 0.859541 0.715533 0.928293 0.940632 0.709279 0.853109 0.934443 0.940453 0.852994 0.934477 0.715641 0.934301 0.92791 0.859343 0.940527 0.940484 0.934564 0.94074 0.72188 0.915735 0.865814 0.921715 0.915642 0.728314 0.865456 0.9281 0.73415 0.92167 0.922004 0.728217 0.921734 0.871943 0.915409 0.91551 0.734386 0.915591 0.927951 0.878118 0.72804 0.928238 0.921676 0.728206 0.721819 0.871999 0.928107 1.15308 0.934333 0.722027 0.934183 0.872021 1.15333 0.93432 0.734259 0.928173 0.878214 0.940833 0.728176 1.14687 0.940574 0.734398 0.940784 0.93449 0.865537 0.934166 1.14689 0.940687 0.940425 0.947033 0.734364 0.946916 0.865678 0.946809 0.953261 0.953268 0.865396 0.946712 0.953209 0.946754 0.959523 1.14676 0.953267 0.746824 0.953208 0.87196 0.95931 1.15322 0.965453 0.740721 0.959522 0.959402 1.15334 0.971846 0.871922 0.971765 0.971956 0.965838 0.965792 1.15929 0.878083 0.959536 0.753293 0.965449 1.15927 0.965609 0.8782 0.972003 0.752893 0.971696 1.15956 0.946693 0.878084 0.946668 0.747 0.94681 1.17207 0.953246 0.846872 0.959242 0.953137 0.946756 0.853154 1.16583 0.946922 0.747059 0.952876 0.95298 0.959323 1.16581 0.953253 0.847054 0.965446 1.16547 0.746861 0.95945 0.84673 0.753253 0.959498 0.971824 0.859374 1.16572 0.971809 0.965705 0.753304 0.971991 0.859317 0.96539 0.965554 1.15931 0.753077 0.853295 0.959476 0.971808 0.96584 1.15939 0.759199 0.971648 0.853026 1.17171 0.759498 1.16576 0.853047 0.702997 0.759598 0.765641 0.846892 0.709449 1.1779 0.771865 0.846783 0.76543 1.17806 0.771845 0.771928 0.703047 0.759184 1.17184 0.859382 0.709417 0.765404 1.18419 0.759212 0.715626 0.859303 1.17815 0.765784 0.709412 0.853372 0.765788 0.715486 1.17803 0.859464 0.77172 0.703111 0.865652 1.17183 0.772112 0.709333 0.865694 1.17211 0.872023 0.703146 0.740569 1.1844 0.877933 0.703187 1.18428 0.872083 0.715382 0.747 1.17808 0.715613 0.865758 0.746945 0.709589 1.19086 0.865699 0.7531 0.71586 1.18417 0.86563 0.753192 1.1906 0.877932 0.753229 0.721653 0.872115 1.19676 0.721657 0.871649 1.19081 0.747019 0.721732 1.19669 0.74054 0.871815 1.19042 0.734283 0.884458 1.1842 0.728257 0.746969 1.19678 0.884586 0.740867 1.19687 0.734145 0.890787 0.746865 1.19702 0.890795 0.728334 0.753127 1.19062 0.896848 0.752955 1.17799 0.890462 0.721665 0.759349 0.884529 1.17166 0.765396 0.727996 0.88445 1.18413 0.75921 1.17811 0.765731 0.884219 0.721967 1.17817 0.765668 0.890804 1.1782 0.77177 0.890447 0.728169 0.772018 1.17211 0.903031 0.728118 0.903071 0.772036 0.903141 1.1719 0.734428 0.759141 0.896831 1.17799 0.759569 0.734213 1.18435 0.909289 0.909589 0.765489 0.734539 0.896957 1.18454 0.759316 1.18441 0.897116 0.709138 0.896893 1.19064 0.771866 0.903209 1.19086 0.76563 0.909507 1.18462 0.715427 0.771838 1.19085 0.903255 0.709565 0.703281 1.1968 0.909355 0.715689 0.90935 1.19701 0.70943 0.715793 1.19047 0.884203 0.709486 0.878191 1.19041 0.71557 0.890504 1.19672 0.715601 1.19677 0.709131 0.715858 1.19683 1.14671 0.8846 0.702977 0.715616 1.1471 0.721998 0.709548 0.890454 1.15294 0.72803 0.884447 0.715717 0.721644 1.15288 0.715503 0.884512 1.15301 0.734371 0.72817 0.87815 0.722105 0.728282 0.878161 1.15926 0.72176 0.890685 0.728144 0.734167 1.14704 0.884425 0.728231 0.734383 1.14711 1.14702 0.722035 0.728311 0.890444 1.15297 0.728316 0.734468 0.890656 1.15314 0.722082 0.721905 0.903326 0.721791 1.15958 0.721915 0.896698 1.15944 0.721683 0.89671 0.73443 1.16542 0.728012 0.896942 1.16574 0.728155 0.734409 1.17169 0.728203 0.902998 1.15926 0.734559 0.734336 1.15937 0.909595 0.734244 0.909493 0.746993 0.734323 1.16566 0.909139 0.702908 1.16562 0.740411 0.902918 0.703316 1.17187 0.740708 1.16542 0.902992 1.14707 0.709308 1.14687 1.15325 0.715466 1.15325 0.740491 0.897003 1.15334 1.14673 1.14697 0.709126 1.14675 1.1529 0.715839 0.896666 0.753375 0.715411 0.909227 1.15293 0.703122 0.702957 0.753136 1.15913 0.902942 0.715429 1.15945 0.709329 0.753031 1.16555 0.70921 0.915613 0.709495 0.746832 1.17196 0.921693 0.715412 1.1656 0.74694 0.721653 1.15944 0.915789 1.15923 0.722123 1.15959 0.740874 0.921757 0.728323 1.16556 0.740729 1.16541 0.734127 1.16562 0.928048 0.728255 0.747061 1.17171 0.734387 0.915629 0.75297 1.17174 0.728299 0.752889 1.17804 0.721858 1.17817 0.721749 0.915584 1.18439 0.747026 1.17209 0.728078 0.915618 1.17816 0.722007 0.922109 0.734207 1.18427 0.921956 1.17809 0.734422 0.921884 1.17824 0.728086 0.928132 1.18444 0.734483 1.18428 0.9344 0.746631 1.19058 0.934574 0.740424 1.19062 0.740723 0.746729 1.19702 0.765856 0.740646 1.19057 0.765624 0.753303 1.19711 0.759466 0.753365 1.18436 1.19079 0.759458 0.753265 1.19687 0.740717 0.765393 0.746916 1.1908 0.74082 0.77164 1.19666 0.746706 0.753311 0.771895 1.19712 0.746765 0.753072 1.17199 0.759433 1.17205 0.759577 0.75932 1.17811 0.765496 0.75923 1.17819 0.765653 1.18422 0.765667 0.759215 1.17176 0.772076 0.765751 1.17168 0.772038 0.765865 0.940849 1.17832 0.772036 0.772053 1.17834 0.759136 0.772003 0.940684 0.759317 0.940692 0.759422 0.746939 1.17808 0.928301 0.765544 0.740515 0.934232 0.771907 1.18425 0.74075 0.928226 0.77169 1.18454 0.928199 0.746808 0.765776 1.19062 0.771674 0.740379 0.940507 0.746727 1.18429 0.753359 0.934306 0.740624 0.753014 0.940462 1.19056 0.740585 0.934243 0.746791 0.915398 0.747049 0.74701 1.19696 0.753344 0.753265 1.19064 0.752882 1.19675 0.746816 0.740773 1.18446 0.740483 0.740457 0.74664 1.19084 0.740858 0.740782 1.19696 0.747101 0.75329 0.752928 0.753083 1.19081 0.746846 0.753065 0.759295 0.752982 1.19697 0.765469 0.921756 1.19694 0.759218 0.759546 0.978308 0.915689 0.977884 0.978243 0.765863 0.984486 0.765429 0.99047 0.921815 0.98428 0.77163 0.978139 0.765729 0.977937 0.921759 0.984323 0.772005 0.984416 0.759145 0.928081 0.984251 0.759269 0.990718 0.772009 0.990496 0.915671 0.997086 0.765558 0.996991 0.76543 1.00337 0.99057 0.990563 0.915669 0.759504 0.772081 0.997105 0.759338 0.996746 1.00326 0.915742 0.997049 0.759188 0.978299 0.765799 0.978254 0.765794 0.921845 0.977896 0.984194 0.771671 0.990459 0.759255 0.98432 0.92807 0.990477 0.978246 0.98421 0.765844 0.978038 0.92821 0.759372 0.771856 0.984294 0.921668 0.984602 0.771712 0.771743 0.990607 0.996857 0.934483 0.778217 0.990676 0.772119 1.00303 1.00328 0.778037 0.765806 0.934502 0.996989 0.996814 0.784217 0.990809 0.77197 0.996889 0.928116 0.996739 0.777948 1.00292 0.940707 0.703272 0.784262 1.00333 0.934282 1.00962 0.790777 1.00337 0.709352 1.00937 0.9405 1.01569 0.784592 1.01556 1.00937 1.01546 0.928329 0.790814 1.0092 0.703258 1.0095 1.00325 1.01538 0.790808 0.934612 1.01565 0.703154 1.02192 0.777934 1.02198 0.940485 1.02824 0.784239 0.715682 1.02825 0.934573 1.02803 1.02211 0.778035 1.02196 0.940556 0.715778 0.784181 1.02179 0.940755 1.02797 0.71563 0.94665 1.02799 0.790586 0.953341 1.00924 1.00934 0.709349 1.00312 0.790676 1.01576 0.946719 0.709213 1.01566 1.01587 0.796693 1.00336 0.703279 0.953117 1.00955 0.796775 0.959615 1.00943 0.953341 0.796956 1.01555 0.959528 1.01561 0.709283 0.802957 1.00953 0.946741 1.02171 0.715875 1.02163 0.802985 0.947029 1.02824 0.715605 0.802879 0.952953 1.02809 0.796885 1.02169 0.721748 1.02171 0.946675 1.02163 0.796673 1.02832 0.72791 1.02822 1.028 0.953245 0.809334 0.721826 0.978086 0.959151 0.978049 0.803263 0.978229 0.734333 0.959603 0.984167 0.809537 0.984541 0.965434 0.728134 0.978139 0.959315 0.803042 0.978124 0.734212 0.971664 0.984219 0.809178 0.984577 0.728254 0.965765 0.984237 0.990681 0.971844 0.99074 0.722075 0.990412 0.972014 0.996962 0.778237 0.721992 1.00289 0.965511 0.965808 1.00317 0.996741 0.784204 0.72199 0.996812 0.965771 0.990749 0.778077 0.990736 0.97169 0.728008 0.996812 0.972051 0.997059 0.78432 0.728246 1.0029 0.946735 0.978342 0.79084 0.978111 0.978039 0.734473 0.984383 0.947022 0.790807 0.984425 0.978015 0.734419 0.978144 0.984221 0.946702 0.984301 0.790644 0.734196 0.984554 0.959469 0.990428 0.990504 0.953271 0.996861 0.703285 0.99072 0.777886 0.996922 1.00307 0.997044 0.996728 0.959204 0.990456 0.778058 0.990554 0.709167 0.953263 0.996833 0.784261 0.709219 1.00323 0.778239 1.00308 0.947083 0.703287 1.00932 0.784386 0.947085 1.0094 1.01585 0.715592 1.01566 0.79082 1.00317 0.952934 1.00932 0.78446 0.715438 1.0096 1.01565 0.790744 1.00956 1.01585 0.953052 1.02197 0.803032 0.715866 1.02183 1.02202 1.02794 0.796702 1.02796 0.953091 1.02799 0.797004 1.01571 0.965779 0.703159 1.02183 0.809217 1.02165 0.959517 0.70938 1.02809 0.803165 0.965436 1.02794 0.703316 1.00316 0.809472 0.971892 1.00929 0.703106 0.803111 1.00941 1.00923 0.71587 1.01548 0.803045 1.01559 0.971974 0.715564 1.00311 1.00925 0.796829 0.709326 1.00318 0.959549 1.01561 0.727876 1.00922 0.796979 0.965675 1.01586 0.72796 1.02181 1.0217 0.796631 1.02819 0.721861 0.959427 1.028 1.02826 0.809186 0.727929 1.02201 0.965756 0.809516 1.0221 1.02195 0.721976 1.01573 0.80324 1.02808 1.02799 0.972024 1.03431 0.73452 1.03456 1.03441 0.809408 0.971835 0.734539 1.04059 0.815853 1.04676 1.0407 0.809388 0.971772 0.722051 1.03413 0.965598 1.03449 0.815636 1.04703 0.72193 1.0404 0.921871 1.04067 0.809479 1.04073 0.915663 1.05291 0.821742 0.722067 0.915745 1.05326 0.815668 1.04688 1.05325 0.728255 0.915421 0.821718 1.05931 1.05954 1.04683 0.734481 0.81564 1.05321 0.928279 1.04708 0.734149 0.815855 1.05956 1.05337 0.922117 0.728221 0.821771 1.05939 0.928304 1.03432 0.821662 1.04059 0.734429 0.921837 1.03416 0.821937 1.03428 1.04682 0.915582 1.04074 0.828279 0.740663 0.921858 1.04075 0.915853 1.03452 1.03452 0.828356 1.04038 0.746858 0.921674 0.827919 1.04076 0.927885 1.05326 0.746821 1.05303 1.04709 0.840469 0.927991 1.05926 1.05932 0.740766 0.834197 1.05313 0.934528 1.04682 1.04674 0.740687 1.04701 1.05336 0.834609 1.05915 0.752985 1.05297 0.840776 1.06545 0.753136 0.934505 1.06572 0.840792 1.06557 0.753364 0.934172 1.0719 0.83427 1.07169 0.740851 1.06539 1.05949 0.828098 1.06568 0.746698 0.834164 0.940755 1.07185 0.740718 0.828314 1.07181 0.8404 1.07163 1.07797 0.746747 0.940455 1.07796 0.834552 1.08449 0.75321 1.08447 0.840704 1.08418 0.940384 1.07815 0.74668 1.07808 1.07835 0.815771 1.08446 0.928035 0.752941 1.08435 1.06581 0.815867 1.06567 0.934429 1.07164 1.07189 0.759423 1.05956 0.934323 1.06552 0.75915 0.815535 1.05925 1.07191 0.940598 1.06586 1.06587 0.765855 1.07796 0.821756 1.07796 0.940436 1.08442 1.08415 0.765793 0.827912 1.07187 0.915466 0.771835 0.821936 0.915687 1.07188 0.821683 1.0779 1.07821 0.92197 0.765568 1.07826 0.815833 1.08439 0.921921 1.0844 0.771677 1.08435 1.03449 0.759303 0.821811 0.921643 1.03437 0.765637 1.04081 0.915779 0.815705 1.04053 0.759308 1.04067 0.828034 1.0344 0.915469 0.75919 1.03451 0.822058 1.03418 1.04072 0.76555 1.04669 0.827987 0.909185 1.04087 0.834199 1.04693 0.771731 0.921868 1.05314 1.04703 0.828173 1.05315 0.771838 0.915761 1.05917 0.834289 1.05328 1.05942 0.771915 1.05323 0.827904 1.04663 0.922069 0.740651 1.04695 0.840821 1.0595 0.928294 1.05335 0.746681 0.840763 1.0594 0.934196 1.03413 0.840429 0.740561 0.927946 1.04048 0.834197 1.03434 0.934612 0.746911 1.04688 0.834419 1.04065 1.04044 0.940465 0.753103 1.04705 1.03413 0.834388 1.03433 0.940516 0.747042 0.840455 1.03458 0.940381 1.0406 0.840602 0.752891 0.934558 1.04058 1.04686 0.747014 1.05301 0.778165 0.928154 1.05288 1.05333 1.05955 0.740729 1.05923 0.77792 1.05311 1.04667 0.934348 0.740742 1.04697 0.784432 1.05933 0.740807 0.928333 0.790695 0.753348 1.05933 1.05333 0.928155 0.784459 0.747092 1.06582 0.790449 0.940646 1.05927 1.0658 0.753072 1.07209 0.790568 1.07206 1.07163 0.940438 0.753306 1.06559 1.06548 0.777982 1.06553 0.759545 1.07178 1.07207 0.93449 1.0782 0.78421 0.765633 1.078 1.07806 1.08414 0.759558 0.778166 0.94682 1.08436 1.08458 0.946697 0.77791 0.765739 1.07798 1.07827 0.784418 1.08461 0.771933 1.08414 0.953016 1.06567 1.06543 0.784475 0.765866 1.05957 0.953243 1.072 1.07196 1.07182 0.790412 0.77201 1.06559 0.79043 0.953043 0.759172 1.06577 0.797016 0.959268 0.765453 0.796776 1.06547 0.759584 0.803013 0.959255 0.759183 1.07166 0.803165 0.771885 1.07188 1.078 0.772001 0.803317 1.07796 1.08448 0.946719 0.772036 0.796784 0.765862 0.946788 1.08423 0.796898 0.947101 0.796998 1.08425 0.778352 0.803106 1.07824 0.80303 0.953362 1.07826 0.809499 0.959197 1.07791 0.78436 0.784255 0.953346 0.777945 1.08423 0.965426 0.778255 0.778222 1.08413 0.98433 0.978354 0.965592 0.978321 0.778229 0.778322 0.978118 0.790616 0.99066 0.965571 0.984175 0.784516 0.978203 0.790874 0.978071 0.984601 0.784488 0.98446 0.971898 0.984621 0.996692 0.790672 0.790726 0.997017 0.790584 0.996645 0.990771 0.971765 1.00304 0.78449 0.778175 1.00306 0.990828 0.95962 0.778368 0.990813 0.784246 0.990389 1.00333 0.996906 0.965514 0.777882 0.78431 0.79084 0.997109 0.777988 0.790638 0.959233 1.00316 0.784257 0.784587 0.977911 0.790489 0.796784 0.96578 0.784477 0.797097 0.790518 0.796941 0.978215 0.971965 0.790695 0.80331 0.984168 0.971871 0.802927 0.809224 0.978126 0.947007 0.79692 0.80314 0.984262 0.797085 0.946882 0.990536 0.809437 0.796685 0.952978 0.80926 0.796625 0.953278 0.977935 0.809215 0.796921 0.95939 0.947056 0.803038 0.803344 0.947091 0.809562 0.978089 0.809496 0.802998 0.984247 0.946894 0.796682 0.803124 0.953173 0.984322 0.809189 0.803296 0.953038 0.809219 0.984245 0.953178 0.990431 0.796851 0.815722 0.996981 0.959447 0.80925 0.809236 0.997091 0.965441 0.815406 0.803278 1.00295 0.965504 0.803149 0.821679 0.996996 0.809235 0.990751 0.821637 0.965759 0.77822 0.815843 0.777984 0.971717 0.990784 0.809571 0.784208 0.959412 0.80915 0.990541 0.778252 0.815559 0.959526 0.997121 0.790565 0.815791 0.99665 0.79044 0.959319 0.821651 1.00925 1.00925 0.784156 0.821805 1.01578 0.96539 1.01574 1.01574 0.790464 0.821801 1.00957 0.784241 0.965638 0.828342 1.00933 1.00331 0.777895 0.834482 0.971633 0.828251 1.00924 0.784163 0.82824 0.971928 0.840398 1.01586 0.778155 0.834392 1.01555 0.790497 0.840601 1.02211 0.977977 1.0221 0.828012 1.02792 0.78451 0.83424 0.971718 1.02791 0.790679 1.02803 0.82806 1.02194 0.803034 0.984348 1.02207 0.834269 0.797116 1.02168 0.977934 0.797009 1.02816 0.840763 1.02789 0.796655 0.840755 1.0033 0.803336 0.978102 0.83456 1.00923 0.809352 0.840555 1.00914 0.98458 0.809622 1.0154 0.803218 0.978181 0.815673 0.809623 0.978294 0.815875 1.01557 0.802976 0.97211 0.821691 1.01553 0.796839 0.822122 1.00337 0.802905 0.815814 0.984243 1.00324 0.796955 0.81576 0.984506 1.00335 0.809424 1.00954 0.815535 0.984515 1.01558 0.821843 0.99047 0.809568 1.00915 0.822089 0.990504 0.809166 0.821719 1.0096 0.996693 0.827968 0.815395 1.02171 0.996705 0.828353 1.02176 0.997112 0.821744 0.828287 1.02799 0.815566 0.840618 1.02809 0.815675 0.990538 0.834386 1.02826 0.82801 1.02173 0.840803 0.990527 0.828007 0.834281 1.02207 0.834279 0.990384 1.01551 0.82208 0.828309 1.02203 0.828253 0.827925 0.997041 0.815726 0.834374 1.02834 0.996706 0.834416 0.821786 0.977915 1.02802 0.840708 0.977918 0.840573 0.821923 0.97833 0.984266 0.840392 0.702949 0.815579 0.978021 0.984512 0.70292 0.821893 0.978175 0.978174 0.703065 0.827908 0.709434 0.715691 0.828237 0.978161 0.972026 0.834414 0.984255 0.978344 0.834602 0.709464 0.984457 0.840795 0.98415 0.715708 0.984135 0.840522 0.990668 0.709227 0.978329 0.990418 0.709151 0.840761 0.978057 0.996703 0.703332 0.972088 0.702966 0.846726 0.98461 0.996769 0.715747 0.834518 0.996653 0.715631 0.984528 0.990739 0.834217 0.715832 0.984447 0.709287 0.834433 0.990499 0.84068 0.722091 0.990509 0.846627 0.721851 0.984589 0.840563 0.990768 0.721894 0.821834 0.734127 0.990445 0.996923 0.728339 0.815849 0.734209 0.815485 0.728232 0.996728 0.815438 0.996958 0.721986 0.828246 0.997042 0.727902 0.997095 0.828068 0.990526 0.727893 0.822015 1.00315 0.990501 0.722094 0.828256 1.00334 0.728272 0.990642 1.00948 0.81542 0.734561 1.01558 0.996968 0.7344 0.822016 1.00946 0.996922 0.734611 1.00959 0.815498 0.702978 0.971871 0.709355 0.821995 0.978111 1.00293 0.828331 0.978209 0.715572 0.822009 0.709449 1.00303 0.827975 0.715795 0.984354 1.00313 0.71546 0.834202 0.709409 0.984197 0.840444 1.01562 0.702917 0.834298 0.846698 1.00922 0.703049 0.971646 0.840659 0.71587 0.840657 1.00914 0.709325 0.978085 0.83454 1.02199 0.72181 0.834279 0.971752 1.01583 0.727936 0.840448 0.721829 1.02198 0.83446 0.971942 0.728061 1.02175 0.84062 0.721875 0.97815 1.01566 0.734325 0.846769 0.734156 1.02828 0.777941 0.978007 1.02788 0.778248 0.734199 1.0283 0.984433 0.777999 0.721837 0.984468 0.784145 1.02202 0.72814 0.784134 0.990577 0.722026 0.790744 1.01586 0.734178 0.790756 0.990634 0.727882 0.784436 1.0217 0.728299 0.990727 0.778033 1.02811 0.734372 0.778205 0.996771 0.740586 0.790768 1.02809 0.740575 0.784326 1.00307 0.740441 0.99681 0.790819 0.746789 1.0094 0.984515 0.790639 0.752881 1.00322 0.753297 1.01549 0.7843 0.990454 0.75291 1.00938 0.79705 0.990862 0.7471 0.796638 0.996958 1.0092 0.746649 0.796869 0.997034 0.802993 1.01547 0.747002 0.997102 0.809212 0.740868 0.803317 1.00302 1.00333 0.809422 0.746725 1.00297 1.00305 0.796871 0.740697 0.802955 1.00918 0.753249 0.797023 0.753221 1.00922 1.00308 0.802992 0.765618 1.01577 1.01574 0.809292 0.759569 0.765471 0.759595 0.759601 0.771817 0.771986 0.771774 0.759244 0.765517 0.76544 0.759618 0.771878 0.7658 0.772085 0.740658 0.746736 0.746708 0.740522 0.753038 1.01566 0.746686 0.753278 1.0093 0.809379 0.746764 1.00326 1.00937 0.740771 0.803163 1.01582 0.740621 1.00334 0.809292 0.740554 1.02165 1.00298 0.752924 1.01561 0.777905 1.00926 0.753075 0.784495 0.747053 1.0093 1.02798 0.778292 0.753327 1.01538 1.02212 0.784136 0.759315 1.02788 0.790628 1.00955 0.759388 0.784446 1.0157 1.02812 0.759226 0.790823 1.02169 0.765853 1.02173 0.784167 1.02834 0.771924 1.02201 0.778319 1.02212 0.772073 1.02172 0.778302 0.771674 1.02793 1.02805 0.765542 0.77822 1.01559 0.759343 0.790511 1.02833 1.02172 0.790864 0.7655 0.784387 1.02193 0.765811 0.79053 0.978323 0.759602 0.796949 1.02183 0.796928 0.771909 0.977894 1.02798 0.803304 0.765569 0.978029 1.02821 0.797118 0.771932 0.984305 0.809296 1.02791 0.984361 0.803351 0.809444 1.00295 0.715779 0.809615 0.978274 0.709502 0.803089 0.98414 0.797108 1.00297 0.984473 0.802932 0.978334 0.796836 0.709463 1.00942 0.984289 0.809143 0.709356 0.803331 0.990638 1.01552 0.80947 0.996876 0.715839 1.00922 0.990715 0.715573 0.815437 1.00316 0.997095 0.721677 0.81558 0.722029 1.00299 0.822008 0.721689 0.990752 1.00313 0.728002 1.00303 0.815756 1.00959 0.997084 0.822074 1.00934 0.734489 0.996725 1.00926 0.728203 0.828027 0.990765 0.734168 0.827903 0.996695 1.01568 0.821724 0.734543 1.02185 0.990843 0.82187 0.728108 0.81584 1.00288 0.727927 1.02207 1.0031 0.821816 0.721866 1.00309 0.977897 0.815661 1.01572 0.978138 0.721655 0.984276 0.984429 0.828152 0.990598 0.984487 0.734325 1.02791 0.978055 0.977943 0.828227 0.728029 0.978001 1.02827 0.984352 0.990592 0.828292 0.984405 0.734165 1.02837 0.834556 0.996766 1.01572 0.703065 0.990732 0.83424 0.990819 1.0156 0.709534 0.840625 1.00333 1.02206 0.702902 0.996858 0.99057 0.840737 0.996707 0.715524 1.02794 0.996856 0.996785 1.0033 0.709417 1.02196 0.840619 1.00303 1.0032 0.709407 1.02802 1.00327 0.846627 0.715673 1.0092 1.02209 0.834578 1.03461 0.709371 1.00925 0.834484 1.04042 1.03439 1.00918 0.834532 0.703239 1.03451 1.04087 0.840739 1.01556 0.703344 1.01545 1.04672 0.840638 0.709276 1.0095 0.822012 1.03432 1.00932 0.703292 0.815537 1.01581 1.03423 0.715494 0.