# vtk DataFile Version 3.0
vtk output
ASCII
DATASET UNSTRUCTURED_GRID
POINTS 23606 float
0 0 0
1 0 0
1 1 0
0 1 0
0 0 0
0 0 0
0.181848 0 0
0.937412 0.531087 0
1 0.576273 0
1 1 0
0 1 0
0 0 0
0 0.199227 0
0.168619 0.29663 0
1 0.787164 0
1 1 0
0 1 0
0 0.199227 0
0 0 0
0.160744 0 0
0.933505 0.532269 0
1 0.579326 0
1 1 0
0 1 0
0 0 0
0 0 0
1 0 0
1 1 0
0 1 0
0 0 0
0 0 0
1 0 0
1 1 0
0 1 0
0 0 0
0 0 0
1 0 0
1 1 0
0 1 0
0 0 0
0 0 0
1 0 0
1 1 0
0 1 0
0 0 0
0 0 0
1 0 0
1 1 0
0 1 0
0 0 0
0.3429 0 0
1 0 0
1 1 0
0.872708 1 0
0.417396 0.144244 0
0.3429 0 0
0 0 0
1 0 0
1 1 0
0 1 0
0 0 0
0 0.585785 0
0.507065 0.333246 0
1 0.601664 0
1 1 0
0 1 0
0 0.585785 0
0 0 0
1 0 0
1 1 0
0 1 0
0 0 0
0 0 0
1 0 0
1 1 0
0 1 0
0 0 0
0 0 0
1 0 0
1 1 0
0 1 0
0 0 0
0 0 0
1 0 0
1 1 0
0 1 0
0 0 0
0 0 0
1 0 0
1 1 0
0 1 0
0 0 0
0 0 0
1 0 0
1 1 0
0 1 0
0 0 0
0.519216 0 0
1 0 0
1 1 0
0.90387 1 0
0.77394 0.686284 0
0.519216 0 0
0 0 0
1 0 0
1 1 0
0 1 0
0 0 0
0 0 0
1 0 0
1 1 0
0 1 0
0 0 0
0 0 0
1 0 0
1 1 0
0 1 0
0 0 0
0 0.55906 0
0.49278 0.368101 0
1 0.785289 0
1 1 0
0 1 0
0 0.55906 0
0 0 0
1 0 0
1 1 0
0 1 0
0 0 0
0 0 0
1 0 0
1 1 0
0 1 0
0 0 0
0 0 0
1 0 0
1 1 0
0 1 0
0 0 0
0 0 0
1 0 0
1 1 0
0 1 0
0 0 0
0.581622 0 0
1 0 0
1 1 0
0.0730222 1 0
0.144547 0.855881 0
0.581622 0 0
0 0 0
1 0 0
1 1 0
0 1 0
0 0 0
0 0.174832 0
1 0.689609 0
1 1 0
0 1 0
0 0.174832 0
0 0 0
1 0 0
1 1 0
0 1 0
0 0 0
0 0 0
1 0 0
1 1 0
0 1 0
0 0 0
0 0 0
1 0 0
1 1 0
0 1 0
0 0 0
0 0 0
1 0 0
1 1 0
0 1 0
0 0 0
0.226314 0 0
1 0 0
1 1 0
0.826517 1 0
0.750149 0.878105 0
0.226314 0 0
0 0.179464 0
1 0.67441 0
1 1 0
0 1 0
0 0.179464 0
0 0 0
1 0 0
1 1 0
0 1 0
0 0 0
0 0 0
1 0 0
1 1 0
0 1 0
0 0 0
0 0 0
1 0 0
1 1 0
0 1 0
0 0 0
0 0 0
1 0 0
1 1 0
0 1 0
0 0 0
0.381154 0 0
1 0 0
1 1 0
0.925211 1 0
0.381154 0 0
0 0 0
1 0 0
1 1 0
0 1 0
0 0 0
0 0 0
1 0 0
1 1 0
0 1 0
0 0 0
0 0 0
1 0 0
1 1 0
0 1 0
0 0 0
0 0 0
1 0 0
1 1 0
0 1 0
0 0 0
0 0 0
1 0 0
1 1 0
0 1 0
0 0 0
0 0.0294518 0
1 0.555414 0
1 1 0
0 1 0
0 0.0294518 0
0 0 0
1 0 0
1 1 0
0 1 0
0 0 0
0 0 0
1 0 0
1 1 0
0 1 0
0 0 0
0 0 0
1 0 0
1 1 0
0 1 0
0 0 0
0.649436 0 0
1 0 0
1 0.383628 0
0.649436 0 0
0 0 0
1 0 0
1 1 0
0 1 0
0 0 0
0 0 0
1 0 0
1 1 0
0 1 0
0 0 0
0 0 0
1 0 0
1 1 0
0 1 0
0 0 0
0 0 0
1 0 0
1 1 0
0 1 0
0 0 0
0.623224 0 0
1 0 0
1 0.389792 0
0.623224 0 0
0 0 0
1 0 0
1 1 0
0 1 0
0 0 0
0 0 0
1 0 0
1 1 0
0 1 0
0 0 0
0 0 0
1 0 0
1 1 0
0 1 0
0 0 0
0 0 0
1 0 0
1 1 0
0 1 0
0 0 0
0 0 0
1 0 0
1 1 0
0 1 0
0 0 0
0.789134 0 0
1 0 0
1 0.286967 0
0.789134 0 0
0 0 0
1 0 0
1 1 0
0 1 0
0 0 0
0 0 0
1 0 0
1 1 0
0 1 0
0 0 0
0 0 0
1 0 0
1 1 0
0 1 0
0 0 0
0.515734 0 0
1 0 0
1 0.45149 0
0.515734 0 0
0.841478 0 0
1 0 0
1 0.228917 0
0.841478 0 0
0 0 0
1 0 0
1 1 0
0 1 0
0 0 0
0 0.500237 0
0.679536 1 0
0 1 0
0 0.500237 0
0.838719 0 0
1 0 0
1 0.250904 0
0.838719 0 0
0 0 0
1 0 0
1 1 0
0 1 0
0 0 0
0 0 0
1 0 0
1 1 0
0 1 0
0 0 0
0 0.460227 0
0.629475 1 0
0 1 0
0 0.460227 0
0.659241 0 0
1 0 0
1 0.395787 0
0.659241 0 0
0 0 0
1 0 0
1 1 0
0 1 0
0 0 0
0 0 0
1 0 0
1 1 0
0 1 0
0 0 0
0 0 0
1 0 0
1 1 0
0 1 0
0 0 0
0 0 0
1 0 0
1 1 0
0 1 0
0 0 0
0 0 0
1 0 0
1 1 0
0 1 0
0 0 0
0 0 0
1 0 0
1 1 0
0 1 0
0 0 0
0 0 0
1 0 0
1 1 0
0 1 0
0 0 0
0.989847 0 0
1 0 0
1 0.0266054 0
0.989847 0 0
0 0.506143 0
0.423795 0.270756 0
1 0.970374 0
1 1 0
0 1 0
0 0.506143 0
0 0 0
1 0 0
1 1 0
0 1 0
0 0 0
0.899845 0 0
1 0 0
1 0.183528 0
0.899845 0 0
0 0 0
1 0 0
1 1 0
0 1 0
0 0 0
0 0 0
1 0 0
1 1 0
0 1 0
0 0 0
0 0.678773 0
0.510108 0.953405 0
0.590119 1 0
0 1 0
0 0.678773 0
0 0.172606 0
0.117158 0.279044 0
0.885759 1 0
0 1 0
0 0.172606 0
0.943254 0 0
1 0 0
1 0.100841 0
0.943254 0 0
0.935885 0 0
1 0 0
1 0.132956 0
0.935885 0 0
0 0.601475 0
0.455897 0.411649 0
1 0.194737 0
1 1 0
0 1 0
0 0.601475 0
0 0 0
0.0679167 0 0
0 0.0434918 0
0 0 0
0 0.188877 0
0.0989434 0.279017 0
0.86479 1 0
0 1 0
0 0.188877 0
0 0 0
0.121891 0 0
0 0.0824861 0
0 0 0
0 0.607117 0
0.451331 0.409457 0
1 0.179186 0
1 1 0
0 1 0
0 0.607117 0
0 0.298363 0
0.0821857 0.365247 0
0.826545 1 0
0 1 0
0 0.298363 0
0 0.548988 0
0.701081 1 0
0 1 0
0 0.548988 0
0.223646 0 0
1 0 0
1 0.569169 0
0.223646 0 0
0.787918 0 0
1 0 0
1 0.123946 0
0.787918 0 0
0 0.336687 0
0.0529203 0.378369 0
0.805609 1 0
0 1 0
0 0.336687 0
0.540868 0 0
1 0 0
1 0.456423 0
0.540868 0 0
0 0.65965 0
0.525768 0.934773 0
0.641091 1 0
0 1 0
0 0.65965 0
0.763286 0 0
1 0 0
1 0.331456 0
0.763286 0 0
0.252725 0 0
1 0 0
1 0.575407 0
0.252725 0 0
0 0.786022 0
0.390885 1 0
0 1 0
0 0.786022 0
0.634805 0 0
1 0 0
1 0.414936 0
0.634805 0 0
0.925966 0 0
1 0 0
1 0.0400403 0
0.925966 0 0
0 0.620117 0
0.191519 0.724869 0
0.405701 0.846179 0
0.652554 1 0
0 1 0
0 0.620117 0
0.873622 0 0
1 0 0
1 0.195471 0
0.873622 0 0
0 0.618088 0
0.520027 1 0
0 1 0
0 0.618088 0
0 0 0
0.110747 0 0
0 0.0410181 0
0 0 0
0.990173 0 0
1 0 0
1 0.025224 0
0.990173 0 0
0 0.802899 0
0.347066 1 0
0 1 0
0 0.802899 0
0.746629 0 0
1 0 0
1 0.167948 0
0.746629 0 0
0.74686 0 0
1 0 0
1 0.31258 0
0.74686 0 0
0 0.802838 0
0.521087 1 0
0 1 0
0 0.802838 0
0 0.594585 0
0.576059 1 0
0 1 0
0 0.594585 0
0.884111 0 0
1 0 0
1 0.196527 0
0.884111 0 0
0 0.49282 0
0.693795 1 0
0 1 0
0 0.49282 0
0 0 0
0.0178374 0 0
0 0.010667 0
0 0 0
0 0.626287 0
0.960256 0.329657 0
1 0.317893 0
1 1 0
0 1 0
0 0.626287 0
0 0 0
0.186569 0 0
0 0.0887007 0
0 0 0
0 0.635763 0
0.538903 1 0
0 1 0
0 0.635763 0
0 0.623238 0
0.207638 0.724484 0
0.412546 0.82784 0
0.721042 1 0
0 1 0
0 0.623238 0
0 0.576922 0
0.765986 1 0
0 1 0
0 0.576922 0
0.940975 0 0
1 0 0
1 0.03155 0
0.940975 0 0
0 0.64688 0
0.935661 0.320226 0
1 0.298674 0
1 1 0
0 1 0
0 0.64688 0
0 0.65473 0
0.922541 0.315195 0
1 0.287824 0
1 1 0
0 1 0
0 0.65473 0
0.973716 0 0
1 0 0
1 0.00976399 0
0.973716 0 0
0 0.748336 0
0.337244 0.612823 0
0.526722 0.541882 0
0.987117 1 0
0 1 0
0 0.748336 0
0.754806 0 0
1 0 0
1 0.0744266 0
0.754806 0 0
0 0.735883 0
0.329038 0.596231 0
0.647571 0.469898 0
1 0.335579 0
1 1 0
0 1 0
0 0.735883 0
0 0.646234 0
0.898829 0.306104 0
1 0.269292 0
1 1 0
0 1 0
0 0.646234 0
0 0 0
0.325692 0 0
0 0.165688 0
0 0 0
0 0 0
1 0 0
1 1 0
0 1 0
0 0 0
0 0 0
1 0 0
1 1 0
0 1 0
0 0 0
0.687272 0 0
1 0 0
1 0.153344 0
0.687272 0 0
0 0.156271 0
0.882861 0.618515 0
1 0.682827 0
1 1 0
0 1 0
0 0.156271 0
0 0 0
0.407792 0 0
0.309086 0.0543109 0
0 0.216869 0
0 0 0
0.665083 0 0
1 0 0
1 0.114303 0
0.665083 0 0
0 0.423357 0
0.525349 0.148632 0
0.766347 0.322134 0
1 0.49462 0
1 1 0
0 1 0
0 0.423357 0
0.979195 0 0
1 0 0
1 0.0258034 0
0.979195 0 0
0 0.65059 0
0.863646 0.292613 0
1 0.238171 0
1 1 0
0 1 0
0 0.65059 0
0.508349 0 0
1 0 0
1 0.237405 0
0.508349 0 0
0.470044 0 0
1 0 0
1 0.334374 0
0.748279 0.181304 0
0.470044 0 0
0 0.448106 0
0.473461 0.231885 0
0.903811 0.415807 0
1 0.458434 0
1 1 0
0 1 0
0 0.448106 0
0 0.253085 0
0.0322635 0.27892 0
0.90502 1 0
0 1 0
0 0.253085 0
0.664232 0 0
1 0 0
1 0.175656 0
0.664232 0 0
0 0.597627 0
0.721316 1 0
0 1 0
0 0.597627 0
0.998312 0 0
1 0 0
1 0.000527937 0
0.998312 0 0
1 0.987139 0
1 1 0
0.9947 1 0
1 0.987139 0
0 0.80444 0
0.683308 0.592995 0
1 0.909138 0
1 1 0
0 1 0
0 0.80444 0
0.530149 0 0
1 0 0
1 0.231423 0
0.530149 0 0
0.635151 0 0
1 0 0
1 0.135665 0
0.635151 0 0
0 0.704714 0
1 0.282873 0
1 1 0
0 1 0
0 0.704714 0
0 0.435594 0
0.852351 0.982429 0
0.878382 1 0
0 1 0
0 0.435594 0
0.571575 0 0
1 0 0
1 0.268234 0
0.576062 0.00304379 0
0.571575 0 0
0 0.751611 0
1 0.451448 0
1 1 0
0 1 0
0 0.751611 0
0.575354 0 0
1 0 0
1 0.185626 0
0.575354 0 0
1 0.891914 0
1 1 0
0.950864 1 0
1 0.891914 0
0 0.349105 0
0.0467425 0.381139 0
0.908796 1 0
0 1 0
0 0.349105 0
0.826591 0 0
1 0 0
1 1 0
0.398758 1 0
0.425489 0.932496 0
0.826591 0 0
0 0.725992 0
0.625029 0.339815 0
0.845481 0.455475 0
1 0.541194 0
1 1 0
0 1 0
0 0.725992 0
0 0.755259 0
1 0.417513 0
1 1 0
0 1 0
0 0.755259 0
0.380169 0.729362 0
0.638946 0.125067 0
0.695794 0 0
1 0 0
1 1 0
0.268265 1 0
0.380169 0.729362 0
0.908396 0 0
1 0 0
1 0.0521965 0
0.908396 0 0
0.599526 0 0
1 0 0
1 0.443319 0
0.599526 0 0
0 0.71332 0
0.313091 0.563989 0
0.577057 0.445383 0
1 0.262168 0
1 1 0
0 1 0
0 0.71332 0
0.868144 0 0
1 0 0
1 1 0
0.501547 1 0
0.868144 0 0
0.723906 0 0
1 0 0
1 1 0
0.307755 1 0
0.723906 0 0
0 0.780449 0
0.780498 0.541308 0
1 0.776189 0
1 1 0
0 1 0
0 0.780449 0
0.809928 0 0
1 0 0
1 1 0
0.31171 1 0
0.408397 0.797658 0
0.809928 0 0
0 0.830404 0
0.049082 0.81181 0
0.243478 0.742515 0
1 0.489283 0
1 1 0
0 1 0
0 0.830404 0
0.971015 0 0
1 0 0
1 0.0163876 0
0.971015 0 0
0.393988 0 0
1 0 0
1 0.54331 0
0.605863 0.194463 0
0.393988 0 0
0.642367 0 0
1 0 0
1 0.424595 0
0.642367 0 0
0.741645 0 0
1 0 0
1 0.231222 0
0.741645 0 0
0 0.7117 0
0.573019 0.349453 0
1 0.563206 0
1 1 0
0 1 0
0 0.7117 0
0.805213 0 0
1 0 0
1 0.313728 0
0.805213 0 0
0 0 0
1 0 0
1 1 0
0 1 0
0 0 0
0 0 0
1 0 0
1 1 0
0 1 0
0 0 0
0 0 0
1 0 0
1 1 0
0 1 0
0 0 0
0 0 0
1 0 0
1 1 0
0 1 0
0 0 0
0.833063 0 0
1 0 0
1 0.279352 0
0.833063 0 0
0 0 0
1 0 0
1 1 0
0 1 0
0 0 0
0.90332 0 0
1 0 0
1 0.0632626 0
0.90332 0 0
0 0 0
1 0 0
1 1 0
0 1 0
0 0 0
0 0 0
1 0 0
1 1 0
0 1 0
0 0 0
0.81492 0 0
1 0 0
1 0.234635 0
0.81492 0 0
0 0 0
1 0 0
1 1 0
0 1 0
0 0 0
0 0 0
1 0 0
1 1 0
0 1 0
0 0 0
0.993423 0 0
1 0 0
1 0.00367526 0
0.993423 0 0
0 0 0
1 0 0
1 1 0
0 1 0
0 0 0
0.878583 0 0
1 0 0
1 0.171811 0
0.878583 0 0
0 0 0
1 0 0
1 1 0
0 1 0
0 0 0
0.825712 0 0
1 0 0
1 0.072119 0
0.825712 0 0
0.839532 0 0
1 0 0
1 0.287998 0
0.839532 0 0
0 0 0
1 0 0
1 1 0
0 1 0
0 0 0
0 0 0
1 0 0
1 1 0
0 1 0
0 0 0
0.789144 0 0
1 0 0
1 0.156833 0
0.789144 0 0
0 0 0
1 0 0
1 1 0
0 1 0
0 0 0
0.928704 0 0
1 0 0
1 0.156617 0
0.928704 0 0
0 0 0
1 0 0
1 1 0
0 1 0
0 0 0
0 0 0
1 0 0
1 1 0
0 1 0
0 0 0
0 0 0
1 0 0
1 1 0
0 1 0
0 0 0
0.73594 0 0
1 0 0
1 0.119802 0
0.73594 0 0
0.81136 0 0
1 0 0
1 1 0
0.269898 1 0
0.402065 0.746271 0
0.81136 0 0
0 0 0
1 0 0
1 1 0
0 1 0
0 0 0
0 0 0
1 0 0
1 1 0
0 1 0
0 0 0
0 0 0
1 0 0
1 1 0
0 1 0
0 0 0
0.870751 0 0
1 0 0
1 1 0
0.549201 1 0
0.744586 0.37579 0
0.870751 0 0
0.862981 0 0
1 0 0
1 0.0874592 0
0.862981 0 0
0 0 0
1 0 0
1 1 0
0 1 0
0 0 0
0 0 0
1 0 0
1 1 0
0 1 0
0 0 0
0 0 0
1 0 0
1 1 0
0 1 0
0 0 0
0.433435 0 0
1 0 0
1 0.531884 0
0.60932 0.169272 0
0.433435 0 0
0 0 0
1 0 0
1 1 0
0 1 0
0 0 0
0.54875 0 0
1 0 0
1 0.313835 0
0.556461 0.00580975 0
[...]
CELL_DATA 4686
FIELD FieldData 3
weight 1 4686 float
 1.19678 1.10302 1.04041 1.08438 1.12822 1.1343 1.1404 1.1404 1.13415 0.953341 1.13448 1.03448 1.12827 1.12823 1.14045 1.13418 1.1407 1.13435 0.934133 1.13423 1.12821 1.14071 1.04082 1.13419 1.14051 1.14082 1.14671 0.959501 1.14059 1.07195 1.14704 1.14702 1.14066 1.14688 0.953341 1.09085 1.14689 1.15307 1.14687 1.1467 0.940684 1.14676 1.1471 1.15288 1.15334 1.15308 1.09676 1.15294 1.19686 1.14062 0.871798 1.19708 1.1405 1.19708 1.13456 0.878104 1.14062 1.14707 1.14064 1.19702 1.14681 0.859213 1.15325 1.14687 1.14697 0.884237 0.834403 1.14673 0.990538 0.853242 1.15297 1.15314 0.959547 0.878288 1.15325 1.15926 1.15926 1.15913 1.15334 1.15959 1.1529 0.815491 1.02811 1.15945 0.84039 1.15944 1.16556 0.965861 1.03413 0.822024 0.82825 1.02788 0.709417 1.00959 0.721947 1.0283 0.996693 0.98458 0.890624 0.784139 0.971928 0.884552 0.99047 0.859344 0.89081 0.940683 0.865607 0.778352 0.971633 0.821626 0.946706 0.803001 0.815422 0.934573 0.790874 0.846747 0.965695 0.977934 0.828179 0.984348 0.702997 1.06541 0.759466 0.953266 0.996705 1.00334 0.784255 1.04049 1.03436 0.815566 1.00315 0.828007 1.02828 1.06585 0.80926 1.19692 1.19675 0.834602 1.10939 0.815395 0.846897 1.15932 0.790453 1.08438 0.853098 0.859549 1.19076 1.00946 0.840522 0.978102 0.82208 0.721798 1.00948 0.865399 0.853313 1.05942 1.01583 0.846726 1.05289 0.871752 0.734145 1.02199 0.897111 1.0592 1.07202 0.921996 0.790726 0.871642 1.10301 0.88454 0.928339 1.05334 0.903046 1.04678 0.796685 0.877998 0.859605 0.815675 1.10317 0.853162 1.1595 1.15962 1.16577 1.16579 0.840512 1.17202 0.809215 1.15913 1.15928 0.822047 1.15944 1.15939 0.803038 1.15941 0.815403 1.15959 0.828253 0.846717 1.17186 1.17179 0.802927 1.1721 0.828173 1.17807 1.17817 1.16554 0.853101 0.921932 1.17194 1.16545 1.17195 0.896655 0.797085 1.16547 1.17177 1.16545 0.865533 1.15302 0.859236 1.1593 1.17199 0.871629 1.15309 0.846962 1.16557 1.1532 1.14686 0.86563 0.9344 1.15307 1.14674 0.890817 1.15936 0.809496 1.16541 1.1531 0.878123 1.17212 0.821786 1.16566 1.16581 0.852993 1.16573 1.16541 0.815726 1.17798 1.17208 0.85948 1.15956 1.15962 0.834171 1.1779 1.15936 1.17803 1.17805 0.840761 1.17827 1.18417 1.17814 0.859308 1.18438 1.17828 1.17825 1.18437 1.18435 0.865687 1.18422 1.18424 0.84068 1.18445 1.1842 1.19689 1.19055 0.840721 1.18436 1.18413 1.17203 1.1908 0.865786 1.19069 0.846683 1.17803 1.17205 1.17813 0.871664 1.17195 1.18456 1.17194 0.890539 1.17205 1.17211 1.16562 0.771901 1.16564 1.17192 0.878357 1.16575 0.884339 1.17827 1.17175 0.809353 1.17814 1.1657 1.17797 0.890579 1.16566 1.1655 1.15937 1.15937 0.877938 1.1592 1.1592 0.884185 1.15932 0.878225 1.15958 1.14077 0.890494 1.14072 1.13421 1.15289 1.14669 0.897047 1.14048 1.1344 0.903197 1.12792 1.11546 1.12182 1.12823 0.922027 1.13426 1.15294 1.15308 0.903333 1.1471 0.740584 1.15915 1.14061 0.896845 1.14674 1.13447 0.909127 0.803145 1.12807 1.14064 1.13462 1.14083 0.946922 1.10962 1.10947 1.10305 0.815458 1.12179 1.12834 0.934269 1.11544 1.08423 1.07822 1.09087 0.784167 1.0904 0.927912 1.12789 1.12197 1.11543 1.10961 0.803174 1.13431 1.12189 0.909566 1.12184 1.09708 1.10305 1.08417 0.921658 1.09709 0.803285 1.10945 1.09059 1.15288 1.15303 0.772062 1.14667 1.15948 0.915548 1.14704 1.15313 0.934149 1.14667 0.746978 1.14082 0.92201 1.13446 1.14082 1.14681 1.15328 1.15326 0.915702 1.14699 1.15951 1.15328 1.15288 0.928295 1.15313 1.1467 1.14052 0.871703 1.15321 1.14671 1.14674 0.878223 1.12827 1.1346 1.14058 0.903274 1.1281 1.12812 1.10334 1.11563 0.89053 1.09671 1.12211 1.1157 0.897109 1.10957 1.10937 1.1343 0.903002 1.14046 1.13461 0.859204 1.14048 1.14668 1.13432 0.865503 1.128 1.12179 1.1154 0.871738 1.11543 0.865429 1.10939 1.1907 1.1906 0.884405 1.19068 1.19073 1.19669 0.890446 1.19664 1.17837 1.1905 0.765751 1.19056 0.878292 1.18448 1.17797 1.19071 0.909586 1.19668 1.19674 1.19062 1.18452 0.915547 1.19064 0.821803 0.809499 1.17173 1.18459 1.1846 0.834226 1.17203 1.16538 0.803106 1.16557 0.915603 1.17189 1.172 0.909501 0.828287 1.17203 0.828307 1.16581 1.1779 1.1717 0.840552 1.16552 0.934521 1.17163 0.822043 1.17206 1.16585 1.16542 1.17814 0.834606 0.928341 1.17196 0.790568 1.17207 1.17803 0.903339 1.17813 0.828354 1.15934 0.815875 1.18452 0.909342 1.17179 0.8971 1.17805 1.19084 1.19068 1.19705 0.915869 1.18454 1.19711 0.840408 1.1969 1.18416 1.17793 0.921716 0.840783 1.17831 0.772036 1.1906 0.834345 1.17833 0.928223 1.18429 1.1908 0.846685 1.19668 1.19065 1.19081 0.903108 1.19665 0.847105 0.777982 1.1904 1.19665 0.847027 1.19039 1.18423 0.815559 1.18462 0.859139 1.19069 1.18459 1.18423 1.17813 1.17803 1.18437 1.17799 0.834269 1.19039 1.17176 1.18435 1.17833 1.18422 0.827968 1.17834 1.18448 0.80303 1.18439 1.19087 1.19049 1.19056 0.821801 1.17816 1.18427 1.19074 1.19084 0.852981 1.17817 1.17814 1.15931 1.15924 1.15935 0.834386 1.16576 1.16554 0.80925 1.15317 1.15328 0.846866 1.15309 1.15918 1.14065 1.14664 1.16541 1.16541 1.16573 1.17193 1.1717 1.15946 1.15322 0.872017 1.15297 1.15325 0.865466 1.16571 1.15942 1.14663 1.14045 0.847104 1.14668 1.12808 1.1344 1.1406 0.859143 1.1346 1.12825 1.1219 1.11586 1.12188 1.12205 1.12832 1.11579 1.14076 1.14699 1.13458 1.12791 1.14712 1.14668 1.12799 1.13421 1.12174 1.11541 1.12212 1.11563 1.17815 1.16546 1.17167 1.17168 1.17832 1.16583 1.16545 1.15947 1.15919 1.15292 1.17165 0.827908 1.15955 1.17181 1.14071 1.16541 1.12827 1.15324 1.14683 0.828237 1.153 1.14705 1.14063 1.1345 1.15918 0.834518 1.15315 1.14074 1.12804 1.12817 0.834433 1.13455 1.13428 1.14059 1.12819 1.12204 1.1219 1.11545 0.846958 1.14045 1.12193 1.12186 1.10305 1.12791 1.10327 1.10942 1.11572 1.09062 1.10301 1.07791 1.06577 1.07187 1.07803 1.05333 1.04697 1.0406 1.04058 1.05933 1.03461 1.07211 1.06547 1.06539 1.08425 1.06568 1.05933 1.04087 1.02803 1.04042 1.04691 0.871671 0.877929 0.909349 0.927995 0.840563 0.896831 0.846627 0.965721 0.89064 0.871727 0.865725 0.890399 0.878041 0.884198 0.884484 0.915407 0.946667 0.821974 0.953298 0.903252 0.934213 0.934524 0.815501 0.734277 0.85322 0.815457 0.852991 0.828116 0.859211 0.784418 0.871918 0.82806 0.884504 1.03439 1.02799 0.865543 0.80915 1.01573 0.878276 0.840618 0.852921 0.846698 0.984554 0.796776 1.01578 0.840444 1.03458 0.827977 0.83456 1.00304 0.834462 0.859146 1.0221 0.840555 0.828116 0.865434 0.834453 0.853361 0.740726 0.978144 0.890784 0.840681 0.884461 0.815537 0.896825 0.965434 0.846703 0.87189 0.909609 0.834367 0.959615 0.921831 0.853192 0.965765 0.902945 0.821805 0.85914 0.890439 0.971664 0.853221 0.84697 0.878348 0.871858 0.959315 0.865678 0.896751 0.846641 1.02195 1.02792 0.902978 0.878342 1.00925 0.884175 0.85962 0.803165 1.00306 0.840657 0.878318 0.865712 1.02211 0.846699 0.859433 0.840755 0.834202 0.996692 0.859221 0.84706 0.871783 0.922036 0.859185 0.972014 0.871628 0.859373 0.865709 0.853257 0.978321 0.853202 0.853031 0.846799 0.865551 0.959528 0.909521 0.878211 0.828256 0.884606 0.990554 0.840659 0.915704 0.884377 0.852994 1.01574 0.846686 0.896972 0.99066 0.928323 1.09043 0.834298 1.05913 0.890862 1.10289 0.928219 1.07194 0.87829 0.890835 1.09692 1.06553 1.05302 0.946886 0.865789 1.06562 1.07791 1.07792 1.05921 0.871788 0.940638 1.10941 1.10326 0.890474 1.09674 1.09062 0.834342 0.884294 1.10307 0.934231 0.828109 1.09702 0.834619 0.959215 0.828257 0.959508 0.846821 0.853293 1.1029 1.09669 0.840382 1.08449 0.865565 1.08427 0.890467 1.05915 0.83418 0.859343 0.921928 1.09076 1.09058 0.865828 0.840836 0.878234 1.05322 0.871739 0.85292 0.88445 1.03451 0.878089 0.884127 0.828164 0.997017 0.877934 0.896651 0.821659 1.02791 0.840711 0.98446 0.840537 1.0221 0.940479 0.847023 0.959423 0.98433 0.859325 0.990598 0.965511 0.847094 0.984276 0.853272 0.940425 0.971844 0.946968 0.859271 0.953003 0.953245 0.953245 0.871899 0.965436 0.978138 1.01574 0.96584 0.984175 0.865526 0.978354 0.971925 0.959325 0.878316 1.05936 0.85919 0.946915 1.02816 0.977943 0.872054 1.02207 0.940478 0.884407 1.04672 0.865602 0.940854 0.990821 1.05301 0.953365 0.890772 0.959596 1.04038 0.89679 0.947077 0.971753 1.02194 0.903184 0.946691 1.00925 0.990592 0.896891 1.00957 0.903024 0.984157 1.02192 0.978118 0.903024 0.978308 0.990771 1.0032 1.00952 0.915845 1.02798 1.01586 0.971951 1.01549 1.03444 0.915823 1.0033 0.977884 0.928048 0.909209 0.921693 0.984352 0.877969 0.972063 0.915613 0.909549 0.965494 0.98428 0.909514 0.990718 0.909471 0.996785 0.965495 0.871678 0.896708 0.965748 0.909599 0.984405 0.921742 0.953255 1.00303 0.946719 0.928089 1.02837 0.971849 0.884598 1.00962 1.02171 0.972058 1.04076 0.934245 0.928132 0.99047 1.01568 0.921706 0.978139 1.00937 1.04055 0.86572 0.928339 0.940532 1.02795 1.02811 0.940831 1.05292 0.940613 1.04696 0.840429 0.946983 0.934468 1.05309 0.953163 1.06585 1.05937 0.940493 0.853203 0.953258 1.05957 0.940405 1.07177 1.05947 0.934363 1.07172 0.878286 1.08448 0.940789 0.928214 1.07822 1.05917 0.8345 1.04705 1.06564 0.934402 1.07821 1.05302 0.853109 1.04668 1.07209 0.953117 0.946926 1.0904 1.08442 1.09676 1.09056 0.90953 0.953079 1.08423 1.0967 0.934574 0.940618 0.978055 0.959413 0.940692 0.971947 0.959551 0.903081 0.959413 1.00927 0.965717 0.896838 0.99057 0.890746 1.01567 0.977937 0.846884 1.03416 0.965581 0.846866 1.02192 0.959197 0.903353 0.952929 1.03461 1.04685 0.971909 0.890406 0.884148 1.05915 0.965746 1.04081 0.959159 0.821967 0.996631 0.828268 1.00337 0.996707 0.996991 1.00333 1.00937 0.796657 1.03439 0.997086 1.00337 1.02173 0.828316 0.978243 1.00937 1.0406 1.01569 0.822087 1.00962 1.02788 1.00935 1.02187 1.02192 1.03431 1.02807 1.02824 0.815573 1.04059 1.04704 1.02825 1.01556 1.02198 1.02803 1.05296 1.03456 0.778037 1.03441 1.03413 1.05306 1.05914 0.990496 0.984323 1.05324 1.07197 0.996746 0.784384 1.06587 1.07164 1.06565 1.06576 0.984251 1.00326 1.0906 1.10295 0.997105 1.10302 0.771909 1.08446 1.09666 0.978254 1.10332 1.05918 1.07823 0.972118 1.07809 0.984194 1.06564 0.827982 1.07835 0.99057 0.840811 1.08444 1.09066 0.997049 1.09061 0.803363 1.09694 1.11567 1.10294 1.09701 1.10949 0.984416 0.834349 0.797 0.990563 1.01546 1.02211 1.0092 1.02797 1.02196 0.815552 0.859465 1.02179 1.01565 1.01538 0.840854 0.784573 1.00325 0.834479 1.02171 0.840473 1.0095 0.847053 0.772048 1.01566 0.827922 0.928153 0.828012 0.834245 0.92201 0.84045 0.83424 0.778351 0.915745 0.8342 0.878285 0.846662 0.921643 0.859257 0.84073 0.940441 0.834211 0.946741 0.934332 0.871859 0.840682 0.921757 0.93423 0.847099 0.934306 0.884405 0.859364 0.922109 0.915604 0.853266 0.915609 0.853036 0.928301 0.928144 0.847014 0.878366 0.853088 0.884592 0.940855 0.853271 0.921825 0.90311 0.865482 0.871951 0.928188 0.865755 0.915789 0.946717 0.85941 0.865508 0.89702 0.953158 0.853165 0.897093 0.947062 0.840416 0.85931 0.965743 0.859223 0.959151 0.971828 0.87184 0.959558 0.97169 0.890843 0.865757 0.965541 0.903261 0.921956 0.871636 0.946851 0.903124 0.972051 0.865575 0.940462 0.940721 0.909369 0.871792 0.878109 0.897063 0.928339 0.846709 0.965771 0.928262 0.953102 0.915629 0.85289 0.947098 0.959477 0.87181 0.846796 0.921916 0.934601 0.909572 0.871942 0.909388 0.990819 0.90913 0.896839 0.865386 0.952994 0.859382 0.89085 0.965439 0.965808 0.897015 0.859269 0.959593 0.909292 0.859407 0.865498 0.903223 0.902942 0.821987 0.853139 0.903178 0.934402 0.884549 0.809324 0.884384 0.940741 0.878337 0.884157 0.896649 0.871926 0.87789 0.88436 0.890418 0.834361 0.890498 0.915764 0.884257 0.915722 0.952979 0.790667 0.915425 0.965434 0.890835 0.90927 0.96584 0.896841 0.922072 0.934496 0.890564 0.927918 0.940479 0.778257 0.896688 0.921935 0.890599 0.977897 0.896779 0.902954 0.890833 0.896685 0.896674 0.909326 0.909518 0.89682 0.902882 0.853098 0.90314 0.927877 0.859444 0.915645 0.827884 0.921664 0.859352 0.909518 0.790859 0.853211 0.865389 0.972114 0.965849 0.827953 0.797086 0.990459 0.821716 0.978299 0.797009 0.977896 0.953101 0.959413 0.934459 0.790636 0.971842 0.965627 0.978246 0.802995 1.10916 1.10336 0.865558 1.00303 0.79672 1.10915 1.09664 0.990676 1.10318 0.821836 0.996857 1.07821 0.878013 1.09695 1.01576 0.809162 0.928302 1.00924 1.07163 0.827882 0.915423 1.00312 1.07199 0.877877 0.815633 0.996989 1.08434 0.909268 0.853209 0.984294 0.947 1.0717 0.84075 1.10922 1.10328 0.98432 1.10934 0.959354 1.11553 0.984602 0.828128 0.909274 1.09668 0.990477 1.10303 0.952886 0.82175 0.996814 1.09074 0.971903 0.834342 1.08439 1.00328 0.822027 0.971762 1.07825 0.990809 0.959503 0.85916 1.09086 0.940781 0.865707 0.915381 0.959167 1.07199 0.86569 0.965852 1.09039 0.934458 0.847045 1.04667 0.946984 0.978038 0.721658 1.05298 0.890613 0.97183 1.03432 0.934591 0.953113 0.965529 1.04706 0.953118 0.947101 1.05333 0.990843 0.784499 0.978274 1.0405 0.928351 0.984289 1.05306 0.940846 0.809372 0.990765 0.934189 1.00933 1.00333 1.01555 0.940405 1.03449 0.759577 0.934176 0.996858 0.946675 0.98421 0.971647 0.996645 0.965682 0.790649 0.990813 0.959299 1.04676 1.00333 0.990607 1.04698 0.771826 0.978049 1.06582 1.07185 1.04671 0.959127 0.765856 1.05317 1.04664 0.947117 1.02818 1.05934 0.828321 0.940492 1.05956 1.06542 0.96582 0.815417 1.00303 1.04068 0.97164 0.82801 0.984487 1.00924 0.971935 1.02205 0.840485 0.990828 0.953275 0.984429 1.00331 0.853002 0.952974 1.03423 1.01585 0.859459 1.04059 1.01559 1.02168 0.834484 1.02209 1.0967 1.10919 1.04077 0.815746 1.09066 1.05332 1.10333 0.840744 1.03428 1.08439 1.06542 0.821744 1.08424 1.04062 1.09676 0.834414 1.07797 1.08416 1.09685 1.07807 0.846993 1.05333 1.07195 1.09073 0.853033 1.07806 1.08433 1.1032 1.1031 0.840795 1.10947 1.10916 1.07197 1.09055 1.10958 0.865446 1.0596 1.09065 0.859512 1.09682 1.08418 0.877927 1.10915 1.07837 1.0971 0.884464 1.0907 0.884159 1.07209 1.07194 0.877936 1.07182 1.07822 0.877997 1.07812 1.08428 0.871718 1.08434 1.09052 1.06553 1.10306 1.09704 0.877958 1.0783 1.08423 0.87163 1.10294 1.07208 1.10303 0.884524 1.06581 0.990732 1.05953 0.890531 1.00947 0.890423 1.05308 0.996766 0.896861 1.06585 0.890737 1.0593 1.04062 0.903197 1.05917 0.909434 1.00932 1.03438 1.04699 1.04665 0.915735 1.05961 1.0468 0.92167 1.02809 1.02208 0.897082 1.03452 1.02212 1.02789 1.03454 1.0033 1.04704 0.903024 1.04055 0.978334 0.909618 0.990431 1.02821 1.05305 1.00309 1.04071 0.990638 0.909563 1.02826 1.01574 0.915642 0.84062 1.02171 0.83454 0.91551 1.02826 1.02799 0.871746 1.03456 1.00923 0.865588 1.05304 0.877946 0.996906 1.01539 0.88417 0.89039 1.01557 1.04085 0.87835 0.984262 1.07795 0.984168 1.06571 0.977911 0.884577 0.81542 0.934232 1.07813 0.872083 0.978203 0.847122 0.88439 1.07189 0.959603 0.853306 1.06571 0.940707 0.903169 0.828331 0.934243 1.06565 0.834279 0.89698 0.947029 1.05946 0.871633 0.909355 0.890622 0.859255 0.897039 1.07822 0.865861 0.928226 1.08413 0.896657 0.940507 0.822009 1.09055 0.902969 0.877944 1.09692 0.815498 1.09705 0.865665 0.921734 0.840448 1.09055 0.884535 0.827975 0.915409 1.10311 0.822016 0.984601 0.93449 1.04054 0.83446 0.978071 0.915591 1.0655 0.990389 0.89671 1.05916 0.984621 0.909297 1.05325 0.921759 1.05962 0.928081 0.928107 1.06546 0.865717 0.921676 0.915584 0.784163 1.0845 0.915618 0.928238 1.09663 0.871924 0.890461 1.07816 0.87818 0.846918 1.07207 0.872051 1.09053 0.884398 1.09691 0.81582 1.09664 0.872058 1.10305 1.09079 1.09681 0.884138 0.853367 1.10302 0.815437 1.1096 0.902928 1.12168 1.12195 1.11547 0.878368 1.11578 1.10305 1.10949 1.11586 0.88445 0.822074 1.10927 0.903123 1.1282 1.1155 1.122 0.915786 1.12816 1.12203 0.890874 1.12801 1.13437 1.12813 1.12174 0.896837 0.859508 0.853086 1.12837 0.890538 1.14078 1.12836 1.1219 1.14042 0.897078 1.13442 0.896899 1.14667 1.15307 1.14053 1.1469 0.890852 1.1343 1.14071 1.14692 0.903218 1.13422 1.14698 1.14703 0.902904 1.15302 1.15931 0.90945 1.15314 1.15304 0.921784 1.15925 1.16561 1.1094 0.915539 1.1093 1.0154 0.934562 1.12202 0.965779 0.928293 1.12201 1.12184 1.13447 0.921815 0.934189 1.12805 0.952953 0.903129 1.14671 1.00316 0.909332 0.959469 0.915476 0.971892 0.915583 0.921884 0.909549 0.921933 0.871711 0.865823 0.928098 0.871905 0.921631 0.909595 0.915813 0.902925 0.92791 0.897014 0.927918 0.965436 0.934477 0.997109 0.921689 0.959517 0.934443 0.934282 0.940527 0.928116 0.947033 0.934483 0.928079 0.928199 0.87803 0.946809 0.953271 0.940453 0.915398 0.934301 0.903018 0.909172 0.946916 0.940484 0.946712 0.953267 0.959523 0.959536 0.909232 0.909304 0.921653 1.14054 1.12816 0.921759 1.13417 1.11579 1.13413 1.1155 0.915481 1.11553 1.12164 1.14062 1.14687 1.14076 1.13449 1.12799 0.934318 1.14069 1.1407 0.927894 1.15957 1.14046 1.15315 1.15943 1.14706 1.16567 0.940412 1.15915 1.16587 1.16543 1.15293 1.14673 0.940632 1.15929 1.14072 1.19694 1.15305 1.19702 0.953261 1.19046 1.19663 0.947003 1.19712 1.14708 1.18443 1.19071 0.95931 1.15927 1.18443 1.15332 1.17811 1.19042 1.18423 0.928327 1.17794 1.19693 1.19696 1.17207 1.19702 1.16544 0.947092 1.15316 1.17163 1.1971 1.15942 1.15297 1.19071 1.15295 1.19706 1.14702 0.959135 1.19041 1.19053 1.16565 1.19055 1.15305 1.15961 1.15333 1.15939 1.15929 1.15322 1.15958 1.16572 1.15924 1.16583 1.16571 1.1907 1.17183 1.17211 1.15956 1.15927 0.946768 1.16547 1.19075 1.1782 1.15931 1.19065 0.965789 1.19687 1.14711 1.1844 1.15937 1.15926 1.18417 1.15944 1.18459 0.953183 1.15301 1.16542 1.18456 1.1656 1.15923 1.15941 1.16556 1.16555 0.965453 1.16582 1.19052 1.16541 1.16566 1.16559 1.17187 1.18425 1.17196 0.971846 1.12186 1.16542 1.19669 1.16562 1.13413 0.977954 1.16562 1.19672 1.17168 1.1658 1.17173 1.17176 1.17794 0.971765 1.17198 1.17182 1.18445 1.1718 0.978282 1.17184 1.17208 1.16581 1.1779 1.1407 1.16581 1.14706 1.1719 0.953268 1.14038 1.11546 1.19708 1.16576 0.959522 1.17207 1.18422 1.16572 1.19687 0.959402 1.19045 1.17808 1.19666 0.965838 1.19042 1.19081 1.17173 1.15335 0.978291 1.1654 1.19667 1.12834 1.17815 1.19707 0.965792 1.19687 1.17208 1.19676 1.17792 1.19686 1.17212 0.972003 1.178 1.09065 1.18419 1.19053 1.18441 1.17166 0.977883 1.17806 1.14707 1.18427 0.965609 1.17815 1.11539 1.17171 1.19675 1.16574 1.15337 0.984536 1.17209 1.10936 1.14673 1.17199 0.984279 1.12788 1.17211 1.10295 1.17169 1.17809 1.13423 1.17811 1.17816 0.990438 1.17808 1.15917 1.17832 1.17205 1.17795 0.971956 1.17171 1.17174 1.10334 1.17799 0.984324 1.17799 1.10333 1.17817 1.17834 1.17824 0.990472 1.18446 1.1095 1.18444 1.18416 0.978124 1.08461 1.18446 1.11541 1.12191 1.11566 1.09061 1.12173 0.990755 1.12168 1.12811 1.13452 1.09051 1.12796 1.12834 0.996757 1.13432 1.09666 1.10922 1.11554 1.12806 0.990473 1.10952 1.09083 1.11561 1.12195 1.1346 1.14039 0.996827 1.12817 1.14061 1.08447 1.14695 1.14084 1.14691 1.00957 1.14699 1.09672 1.13449 1.14706 1.00307 1.1529 1.09705 1.15938 1.1594 1.01566 1.15921 1.15296 1.15319 1.15931 1.00958 1.14086 1.147 1.0656 1.1471 1.15299 1.15313 1.0845 1.15945 0.921715 1.15288 1.15921 1.07801 1.15947 1.14046 1.16546 0.9281 1.15953 1.12166 1.16577 1.13448 1.13459 1.11578 0.934183 1.10942 1.12198 1.1217 1.10296 1.13444 1.10944 0.94074 1.11584 1.12185 1.12184 1.11551 1.11587 0.934564 1.13457 1.14056 1.09689 0.940574 1.15317 1.13419 1.12164 1.10918 1.12801 1.10293 1.13457 0.934333 1.12794 1.10916 0.928173 1.09707 1.10944 1.11574 1.09693 0.93432 1.10952 1.0783 0.953137 1.09709 1.12827 1.12812 1.08452 0.946693 1.13454 1.11569 1.12164 0.94681 1.122 1.06555 1.11573 1.15293 1.10933 0.95298 1.14086 1.15929 1.14697 0.946754 1.07188 1.15942 1.11538 0.953208 1.16567 1.16547 0.959242 1.09681 1.172 0.953209 1.16544 1.16578 1.10295 1.17164 1.17194 0.965449 1.15952 1.14691 1.12832 1.0842 1.13456 0.965446 1.15337 1.14691 1.09067 1.15321 1.17797 0.953246 1.15914 1.15315 1.06586 1.1655 0.971809 1.16564 1.1718 1.16549 1.09062 0.95945 1.16541 1.17837 0.965705 1.0782 1.17814 1.18419 1.17802 1.19071 1.09038 1.19038 0.978213 1.19086 1.17178 1.07828 1.1654 0.977965 1.17184 1.08457 1.17212 0.984378 1.17184 1.17803 1.17823 1.07192 1.1844 0.922004 1.18416 1.06567 0.940833 1.18428 1.05916 1.19054 1.18417 1.05942 1.17803 0.940784 1.17166 1.1782 1.07179 1.17817 1.1844 1.17811 0.927951 1.05321 1.17804 0.959323 1.18436 1.06556 0.952876 1.04046 1.18422 1.18435 1.0843 0.946668 1.18439 1.18425 1.09039 1.19085 0.940687 1.06562 1.18462 1.18413 1.1842 0.946756 1.19064 1.09685 1.18441 1.17819 0