# vtk DataFile Version 3.0
vtk output
ASCII
DATASET UNSTRUCTURED_GRID
POINTS 26207 float
0 0 0
1 0 0
1 1 0
0 1 0
0 0 0
0 0 0
1 0 0
1 1 0
0 1 0
0 0 0
0 0 0
1 0 0
1 1 0
0 1 0
0 0 0
0 0 0
1 0 0
1 1 0
0 1 0
0 0 0
0 0 0
1 0 0
1 1 0
0 1 0
0 0 0
0 0 0
1 0 0
1 1 0
0 1 0
0 0 0
0 0 0
0.292575 0 0
0.688534 0.232088 0
1 0.419053 0
1 1 0
0 1 0
0 0 0
0 0 0
0.331198 0 0
1 0.386307 0
1 1 0
0 1 0
0 0 0
0 0 0
1 0 0
1 1 0
0 1 0
0 0 0
0 0 0
0.329874 0 0
0.435009 0.0824078 0
1 0.545244 0
1 1 0
0 1 0
0 0 0
0 0 0
1 0 0
1 1 0
0 1 0
0 0 0
0 0 0
1 0 0
1 1 0
0 1 0
0 0 0
0 0 0
1 0 0
1 1 0
0 1 0
0 0 0
0 0 0
1 0 0
1 1 0
0 1 0
0 0 0
0 0 0
1 0 0
1 1 0
0 1 0
0 0 0
0 0 0
1 0 0
1 1 0
0 1 0
0 0 0
0 0 0
1 0 0
1 1 0
0 1 0
0 0 0
0 0 0
1 0 0
1 1 0
0 1 0
0 0 0
0 0 0
0.258807 0 0
1 0.475353 0
1 1 0
0 1 0
0 0 0
0 0 0
1 0 0
1 1 0
0 1 0
0 0 0
0 0 0
1 0 0
1 1 0
0 1 0
0 0 0
0 0 0
1 0 0
1 1 0
0 1 0
0 0 0
0 0 0
1 0 0
1 1 0
0 1 0
0 0 0
0 0 0
1 0 0
1 1 0
0 1 0
0 0 0
0 0 0
1 0 0
1 1 0
0 1 0
0 0 0
0 0 0
1 0 0
1 1 0
0 1 0
0 0 0
0 0 0
1 0 0
1 1 0
0 1 0
0 0 0
0 0 0
1 0 0
1 1 0
0 1 0
0 0 0
0 0 0
1 0 0
1 1 0
0 1 0
0 0 0
0 0 0
1 0 0
1 1 0
0 1 0
0 0 0
0 0 0
1 0 0
1 1 0
0 1 0
0 0 0
0 0 0
1 0 0
1 1 0
0 1 0
0 0 0
0 0 0
1 0 0
1 1 0
0 1 0
0 0 0
0 0 0
1 0 0
1 1 0
0.610948 1 0
0.346831 0.608713 0
0 0.0727548 0
0 0 0
0 0 0
1 0 0
1 1 0
0 1 0
0 0 0
0 0 0
1 0 0
1 1 0
0 1 0
0 0 0
0 0 0
1 0 0
1 1 0
0 1 0
0 0 0
0 0 0
1 0 0
1 1 0
0 1 0
0 0 0
0 0 0
1 0 0
1 1 0
0 1 0
0 0 0
0 0 0
1 0 0
1 1 0
0 1 0
0 0 0
0 0 0
1 0 0
1 1 0
0 1 0
0 0 0
0 0 0
1 0 0
1 1 0
0 1 0
0 0 0
0 0 0
1 0 0
1 1 0
0 1 0
0 0 0
0 0 0
1 0 0
1 1 0
0 1 0
0 0 0
0 0 0
1 0 0
1 1 0
0 1 0
0 0 0
0.151192 0 0
1 0 0
1 1 0
0.797693 1 0
0.151192 0 0
0 0 0
1 0 0
1 1 0
0 1 0
0 0 0
0 0 0
1 0 0
1 1 0
0 1 0
0 0 0
0 0 0
1 0 0
1 1 0
0 1 0
0 0 0
0 0 0
1 0 0
1 1 0
0 1 0
0 0 0
0 0 0
1 0 0
1 1 0
0 1 0
0 0 0
0 0 0
1 0 0
1 1 0
0 1 0
0 0 0
0 0 0
1 0 0
1 1 0
0 1 0
0 0 0
0 0 0
1 0 0
1 1 0
0 1 0
0 0 0
0 0 0
1 0 0
1 1 0
0 1 0
0 0 0
0 0 0
1 0 0
1 1 0
0 1 0
0 0 0
0.224358 0 0
1 0 0
1 1 0
0.959158 1 0
0.224358 0 0
0 0 0
1 0 0
1 1 0
0 1 0
0 0 0
0 0 0
1 0 0
1 1 0
0 1 0
0 0 0
0 0 0
0.23593 0 0
0.773315 0.311372 0
1 0.447797 0
1 1 0
0 1 0
0 0 0
0 0 0
1 0 0
1 1 0
0 1 0
0 0 0
0 0 0
1 0 0
1 1 0
0 1 0
0 0 0
0 0 0
1 0 0
1 1 0
0 1 0
0 0 0
0.303209 0 0
1 0 0
1 1 0
0.949617 1 0
0.545842 0.381306 0
0.303209 0 0
0 0 0
1 0 0
1 1 0
0 1 0
0 0 0
0.184772 0 0
1 0 0
1 1 0
0.833126 1 0
0.619513 0.676034 0
0.184772 0 0
0 0 0
1 0 0
1 1 0
0 1 0
0 0 0
0 0 0
1 0 0
1 1 0
0 1 0
0 0 0
0 0 0
1 0 0
1 1 0
0 1 0
0 0 0
0 0 0
1 0 0
1 1 0
0 1 0
0 0 0
0.13572 0 0
1 0 0
1 1 0
0.716123 1 0
0.13572 0 0
0 0 0
1 0 0
1 1 0
0 1 0
0 0 0
0 0 0
1 0 0
1 1 0
0 1 0
0 0 0
0 0 0
1 0 0
1 1 0
0 1 0
0 0 0
0.367374 0 0
1 0 0
1 1 0
0.951402 1 0
0.6273 0.457775 0
0.367374 0 0
0 0 0
1 0 0
1 1 0
0 1 0
0 0 0
0 0.211284 0
1 0.81464 0
1 1 0
0 1 0
0 0.211284 0
0 0 0
1 0 0
1 1 0
0 1 0
0 0 0
0.0272266 0 0
1 0 0
1 1 0
0.892143 1 0
0.151934 0.149417 0
0.0272266 0 0
0 0 0
1 0 0
1 1 0
0 1 0
0 0 0
0 0 0
1 0 0
1 1 0
0 1 0
0 0 0
0 0.180541 0
0.982873 0.696995 0
1 0.706642 0
1 1 0
0 1 0
0 0.180541 0
0 0 0
1 0 0
1 1 0
0 1 0
0 0 0
0 0 0
1 0 0
1 1 0
0 1 0
0 0 0
0 0 0
1 0 0
1 1 0
0 1 0
0 0 0
0 0.312669 0
0.432129 0.492911 0
0.621164 0.575949 0
1 0.752779 0
1 1 0
0 1 0
0 0.312669 0
0 0 0
1 0 0
1 1 0
0 1 0
0 0 0
0.52214 0 0
1 0 0
1 0.90789 0
0.965511 0.845651 0
0.52214 0 0
0 0 0
1 0 0
1 1 0
0 1 0
0 0 0
0 0 0
1 0 0
1 1 0
0 1 0
0 0 0
0 0 0
0.00327551 0 0
0.42404 0.282871 0
1 0.681261 0
1 1 0
0 1 0
0 0 0
0 0 0
1 0 0
1 1 0
0 1 0
0 0 0
0.45426 0 0
1 0 0
1 1 0
0.947949 1 0
0.838253 0.790912 0
0.807268 0.730468 0
0.45426 0 0
0 0 0
1 0 0
1 1 0
0 1 0
0 0 0
0 0 0
0.192611 0 0
0.698501 0.349072 0
0.996433 0.560966 0
1 0.563576 0
1 1 0
0 1 0
0 0 0
0 0 0
1 0 0
1 1 0
0 1 0
0 0 0
0 0 0
1 0 0
1 1 0
0 1 0
0 0 0
0 0 0
1 0 0
1 1 0
0 1 0
0 0 0
0.370676 0.808446 0
0.703942 0 0
1 0 0
1 1 0
0.294282 1 0
0.370676 0.808446 0
0 0 0
1 0 0
1 1 0
0 1 0
0 0 0
0 0 0
1 0 0
1 1 0
0 1 0
0 0 0
0 0 0
1 0 0
1 1 0
0 1 0
0 0 0
0 0 0
0.0642661 0 0
0.3932 0.181624 0
1 0.532282 0
1 1 0
0 1 0
0 0 0
0.661847 0.0642659 0
0.69239 0 0
1 0 0
1 1 0
0.24042 1 0
0.661847 0.0642659 0
0 0 0
1 0 0
1 1 0
0 1 0
0 0 0
0 0 0
0.166901 0 0
0.694335 0.350941 0
0.997987 0.559262 0
1 0.560683 0
1 1 0
0 1 0
0 0 0
0 0 0
1 0 0
1 1 0
0 1 0
0 0 0
0 0 0
1 0 0
1 1 0
0 1 0
0 0 0
0 0 0
1 0 0
1 1 0
0 1 0
0 0 0
0.402056 0 0
1 0 0
1 0.868796 0
0.717203 0.47521 0
0.402056 0 0
0 0 0
1 0 0
1 1 0
0 1 0
0 0 0
0 0.0160821 0
0.41529 0.251023 0
0.908909 0.54293 0
1 0.598773 0
1 1 0
0 1 0
0 0.0160821 0
0 0 0
1 0 0
1 1 0
0 1 0
0 0 0
0 0 0
1 0 0
1 1 0
0 1 0
0 0 0
0 0 0
1 0 0
1 1 0
0 1 0
0 0 0
0 0.204187 0
0.984088 0.68107 0
1 0.689363 0
1 1 0
0 1 0
0 0.204187 0
0 0 0
1 0 0
1 1 0
0 1 0
0 0 0
0.498158 0 0
1 0 0
1 1 0
0.916894 1 0
0.613645 0.293438 0
0.498158 0 0
0 0 0
1 0 0
1 1 0
0 1 0
0 0 0
0 0 0
1 0 0
1 1 0
0 1 0
0 0 0
0 0 0
1 0 0
1 1 0
0 1 0
0 0 0
0 0.075525 0
0.697315 0.439937 0
1 0.60395 0
1 1 0
0 1 0
0 0.075525 0
0 0 0
1 0 0
1 1 0
0 1 0
0 0 0
0.152088 0 0
1 0 0
1 1 0
0.707147 1 0
0.152088 0 0
0 0 0
1 0 0
1 1 0
0 1 0
0 0 0
0 0 0
1 0 0
1 1 0
0 1 0
0 0 0
0 0.232796 0
1 0.883272 0
1 1 0
0 1 0
0 0.232796 0
0 0 0
1 0 0
1 1 0
0 1 0
0 0 0
0 0 0
1 0 0
1 1 0
0 1 0
0 0 0
0 0.232577 0
1 0.787592 0
1 1 0
0 1 0
0 0.232577 0
0.0496078 0 0
1 0 0
1 1 0
0.884745 1 0
0.152701 0.128009 0
0.0496078 0 0
0 0 0
1 0 0
1 1 0
0 1 0
0 0 0
0 0 0
1 0 0
1 1 0
0 1 0
0 0 0
0 0.212009 0
0.843096 0.633141 0
1 0.715509 0
1 1 0
0 1 0
0 0.212009 0
0 0 0
1 0 0
1 1 0
0 1 0
0 0 0
0 0 0
1 0 0
1 1 0
0 1 0
0 0 0
0 0 0
1 0 0
1 1 0
0 1 0
0 0 0
0 0 0
1 0 0
1 1 0
0 1 0
0 0 0
0.257844 0.342831 0
0.461773 0 0
1 0 0
1 1 0
0.643898 1 0
0.257844 0.342831 0
0 0 0
1 0 0
1 1 0
0 1 0
0 0 0
0 0 0
1 0 0
1 1 0
0 1 0
0 0 0
0 0 0
1 0 0
1 1 0
0 1 0
0 0 0
0 0 0
1 0 0
1 1 0
0 1 0
0 0 0
0 0.382699 0
0.503925 0.22626 0
1 0.81494 0
1 1 0
0 1 0
0 0.382699 0
0 0.222007 0
0.890478 0.735468 0
1 0.80122 0
1 1 0
0 1 0
0 0.222007 0
0.384294 0.308552 0
0.589412 0 0
1 0 0
1 1 0
0.767341 1 0
0.384294 0.308552 0
0 0 0
0.266668 0 0
0.101226 0.12967 0
0 0.203556 0
0 0 0
0 0.234794 0
0.892398 0.729337 0
1 0.791463 0
1 1 0
0 1 0
0 0.234794 0
0.287215 0 0
1 0 0
1 1 0
0.931928 1 0
0.287215 0 0
0 0.266926 0
0.0960453 0.307452 0
1 0.70825 0
1 1 0
0 1 0
0 0.266926 0
0.43745 0.121214 0
0.355007 0 0
1 0 0
1 0.910039 0
0.43745 0.121214 0
0 0.041327 0
0.39452 0.279212 0
1 0.654186 0
1 1 0
0 1 0
0 0.041327 0
0.36443 0.77252 0
0.70583 0 0
1 0 0
1 1 0
0.267116 1 0
0.36443 0.77252 0
0 0.0322762 0
0.397955 0.279638 0
1 0.664169 0
1 1 0
0 1 0
0 0.0322762 0
0 0 0
0.0694644 0 0
0 0.0426879 0
0 0 0
0.359955 0 0
1 0 0
1 1 0
0.921714 1 0
0.549008 0.34214 0
0.359955 0 0
0 0.088647 0
0.696741 0.440949 0
1 0.599996 0
1 1 0
0 1 0
0 0.088647 0
0 0 0
0.0839255 0 0
0 0.0404341 0
0 0 0
0.763838 0 0
1 0 0
1 1 0
0.138333 1 0
0.467845 0.462822 0
0.755422 0.012643 0
0.763838 0 0
0.464155 0.453362 0
0.757657 0.0133199 0
0.766905 0 0
1 0 0
1 1 0
0.113976 1 0
0.464155 0.453362 0
0 0 0
0.0247719 0 0
1 0.702159 0
1 1 0
0 1 0
0 0 0
0.937634 0 0
1 0 0
1 0.0284243 0
0.937634 0 0
0 0.239796 0
0.847183 0.623692 0
1 0.696672 0
1 1 0
0 1 0
0 0.239796 0
0.695393 0 0
1 0 0
1 0.355277 0
0.695393 0 0
0 0 0
0.172574 0 0
1 0.455789 0
1 1 0
0 1 0
0 0 0
0.806597 0 0
1 0 0
1 0.289585 0
0.806597 0 0
0 0 0
0.285348 0 0
0.635729 0.208842 0
1 0.430581 0
1 1 0
0 1 0
0 0 0
0 0 0
0.196933 0 0
0 0.130328 0
0 0 0
0.712599 0 0
1 0 0
1 0.354916 0
0.712599 0 0
0 0 0
0.0512566 0 0
0.390529 0.182225 0
1 0.524737 0
1 1 0
0 1 0
0 0 0
0.768087 0 0
1 0 0
1 0.331204 0
0.768087 0 0
0 0 0
0.277767 0 0
0 0.131827 0
0 0 0
0 0 0
0.0276366 0 0
0.382056 0.184134 0
1 0.52017 0
1 1 0
0 1 0
0 0 0
0.753519 0 0
1 0 0
1 0.331972 0
0.753519 0 0
0 0 0
0.0279021 0 0
1 0.57043 0
1 1 0
0 1 0
0 0 0
0.879511 0 0
1 0 0
1 0.182748 0
0.879511 0 0
0 0 0
0.0368192 0 0
0.933313 0.425351 0
1 0.458273 0
1 1 0
0 1 0
0 0 0
0.89223 0 0
1 0 0
1 0.0520701 0
0.89223 0 0
0.786003 0 0
1 0 0
1 0.276046 0
0.890374 0.1386 0
0.786003 0 0
0 0 0
0.00421581 0 0
0.373848 0.185982 0
1 0.515707 0
1 1 0
0 1 0
0 0 0
0.902129 0 0
1 0 0
1 0.159259 0
0.902129 0 0
0 0 0
0.334558 0 0
0.672704 0.190373 0
1 0.37723 0
1 1 0
0 1 0
0 0 0
0 0 0
1 0 0
1 1 0
0 1 0
0 0 0
0.996735 0 0
1 0 0
1 0.00145889 0
0.996735 0 0
0.930559 0 0
1 0 0
1 0.110876 0
0.94733 0.0287123 0
0.930559 0 0
0.793286 0 0
1 0 0
1 0.284574 0
0.890656 0.138178 0
0.793286 0 0
0 0 0
0.192495 0 0
0.288513 0.0483263 0
0.982439 0.405489 0
1 0.415179 0
1 1 0
0 1 0
0 0 0
0 0 0
0.251519 0 0
0 0.09934 0
0 0 0
0.964628 0 0
1 0 0
1 0.113461 0
0.964628 0 0
0 0.395811 0
0.488457 0.174304 0
0.768806 0.312485 0
1 0.430898 0
1 1 0
0 1 0
0 0.395811 0
0.574477 0 0
1 0 0
1 0.312629 0
0.574477 0 0
0.914975 0 0
1 0 0
1 0.200331 0
0.930851 0.0402257 0
0.914975 0 0
0 0.161999 0
1 0.60282 0
1 1 0
0 1 0
0 0.161999 0
0 0 0
0.366783 0 0
0 0.156287 0
0 0 0
0 0.00791295 0
0.507563 0.297294 0
1 0.595625 0
1 1 0
0 1 0
0 0.00791295 0
0.462806 0 0
1 0 0
1 0.479444 0
0.462806 0 0
0 0.0121261 0
1 0.55816 0
1 1 0
0 1 0
0 0.0121261 0
0 0 0
0.399117 0 0
0 0.196767 0
0 0 0
0.609608 0 0
1 0 0
1 0.420313 0
0.609608 0 0
0.793156 0 0
1 0 0
1 0.314768 0
0.793156 0 0
0 0.0840379 0
0.347373 0.273369 0
1 0.638194 0
1 1 0
0 1 0
0 0.0840379 0
0.396906 0 0
1 0 0
1 0.522514 0
0.585603 0.172729 0
0.396906 0 0
0.732817 0 0
1 0 0
1 0.07889 0
0.732817 0 0
0.380163 0.863017 0
0.699387 0 0
1 0 0
1 1 0
0.331183 1 0
0.380163 0.863017 0
0 0.13289 0
0.000448028 0.133117 0
0.811679 0.553023 0
1 0.65848 0
1 1 0
0 1 0
0 0.13289 0
0.58151 0 0
1 0 0
1 0.236519 0
0.58151 0 0
0.57176 0 0
1 0 0
1 0.446582 0
0.57176 0 0
0 0.186865 0
1 0.59166 0
1 1 0
0 1 0
0 0.186865 0
0.505596 0 0
1 0 0
1 0.487176 0
0.505596 0 0
0.761763 0 0
1 0 0
1 0.152457 0
0.761763 0 0
0 0.0871823 0
0.397194 0.236013 0
1 0.471374 0
1 1 0
0 1 0
0 0.0871823 0
0.852724 0 0
1 0 0
1 0.269146 0
0.852724 0 0
0.888262 0 0
1 0 0
1 0.194888 0
0.973225 0.150694 0
0.888262 0 0
0.635585 0 0
1 0 0
1 0.264011 0
0.957533 0.234169 0
0.635585 0 0
0 0.446986 0
0.427148 0.226971 0
0.432902 0.224071 0
1 0.47721 0
1 1 0
0 1 0
0 0.446986 0
0.800063 0 0
1 0 0
1 0.11406 0
[...]
CELL_DATA 5139
FIELD FieldData 3
weight 1 5139 float
 1.028 1.03413 1.02201 1.00922 1.03433 1.07837 1.18414 1.1904 1.0844 1.17817 1.01573 1.06555 1.02808 1.05913 0.996833 1.05943 0.978144 1.07173 1.19664 1.07195 1.06558 1.1908 1.05954 1.19676 1.07181 1.18428 1.06574 1.19693 1.07804 1.19081 1.07212 1.19041 1.08439 0.965765 1.00304 1.07836 1.1842 0.978321 1.08415 1.1908 1.19047 1.08433 1.19056 1.07788 1.07817 0.959501 1.1906 1.09083 1.07188 1.19085 1.08434 1.19042 1.09668 1.19665 1.08454 1.09051 0.953341 1.08449 1.07209 1.19671 1.08456 1.19692 1.07804 0.946719 1.19711 0.959615 1.19687 1.19697 1.09061 1.19672 0.959315 1.19062 1.19057 1.07822 0.934574 1.08454 1.13445 1.08432 0.953117 1.09056 1.0906 1.147 1.09702 1.10315 1.09069 1.14087 1.0906 0.90953 1.09086 1.09694 1.18438 1.0969 0.921693 1.09709 1.19705 1.10293 1.10932 1.10312 0.90311 1.10308 1.09708 1.10301 1.1843 0.903081 1.10913 1.18454 1.11544 1.09052 1.09049 0.922109 1.10327 1.19687 1.09671 1.09672 1.10332 1.15931 1.09084 0.921757 1.10324 1.10302 1.09668 1.19043 1.1092 0.959528 1.11575 0.971664 1.1342 1.09703 1.11577 1.15316 0.946741 1.10951 1.10332 1.18414 1.10936 1.10936 1.10927 1.10934 0.965511 1.12168 1.11557 1.12195 1.11571 1.15932 1.17185 0.953245 0.721947 1.17791 0.940692 1.19708 0.928301 1.19706 0.915789 1.19044 0.702997 0.934306 1.19705 0.740411 0.915629 0.921956 1.19708 0.753136 1.19076 0.853109 1.19066 0.840429 1.19686 0.709412 0.853203 1.19684 0.846866 0.746993 1.19063 0.846884 1.19667 0.827982 1.19684 0.759466 0.834349 1.19673 0.821987 1.19687 1.19697 0.753375 0.809324 0.840473 1.19677 0.784139 0.809596 1.19702 0.778352 0.827884 1.19674 0.790874 1.19707 0.878286 1.19669 0.79692 0.859465 0.840416 1.19678 0.884148 0.815566 0.890406 1.19686 0.803001 0.871951 1.19702 0.878366 0.77164 1.19062 0.834361 0.821716 0.784255 1.19696 0.778322 0.81582 0.78449 0.859444 1.19666 0.759618 0.827953 1.19683 0.802927 1.1968 0.815626 0.790726 1.19675 0.797085 0.746832 1.19701 1.12798 1.12795 1.1221 1.12202 1.12824 0.790667 1.13459 1.12205 1.12196 0.790859 1.11552 0.771895 1.11543 1.12835 1.12171 1.13452 1.12799 1.13415 1.13428 1.14053 1.13434 1.12813 1.12209 1.13424 1.14049 1.13413 1.12806 1.11586 1.10949 1.11558 1.10322 1.12207 1.1221 1.10306 1.10924 1.10298 1.1155 0.740449 1.10943 1.12177 1.12807 0.772076 1.12799 0.753075 1.11585 0.797009 1.11564 1.13434 1.12203 1.1279 1.10933 0.790545 1.12208 1.11573 0.803038 1.13428 1.13438 1.12823 1.14675 0.796685 1.14042 1.14691 1.14051 1.14681 1.14702 1.14071 1.1471 1.14083 0.809215 1.14057 1.14667 0.815675 1.14072 1.13415 0.796704 1.15295 1.15318 1.15301 1.15317 0.784517 1.14711 0.80925 1.15324 1.14073 1.15297 1.14697 1.14682 0.803296 1.12825 1.14044 0.746669 1.14706 1.1346 1.15315 0.790489 0.734477 1.12165 1.12207 1.12813 1.12818 1.14076 0.753293 0.778255 1.12797 1.13426 1.14067 1.14683 0.728105 1.1342 0.746643 0.796851 1.15914 0.740852 0.759321 1.1408 0.790518 1.14666 1.13437 1.14085 1.14697 1.10922 0.78431 0.753242 1.10928 1.09688 0.884592 1.09675 1.11562 0.796682 1.10294 0.87181 1.0969 1.0908 0.853098 1.08414 1.0971 0.834602 1.08461 0.89702 1.08423 1.10332 0.778113 1.10295 0.815395 1.1155 0.909572 1.10929 1.1096 1.09693 0.840522 1.09086 0.759226 0.859407 1.0906 1.10294 1.09074 0.828007 0.834126 1.09666 1.07196 0.759315 1.06543 1.08425 0.809286 1.07796 0.846897 1.05957 0.759388 1.05923 0.853313 1.05333 0.81552 1.072 1.05311 0.82208 1.04686 0.759343 0.846918 1.08448 1.07826 0.828253 0.765811 1.07182 0.865389 1.07166 1.09044 0.759602 0.822094 0.809496 0.7655 0.821786 1.07824 0.890622 1.07791 1.06559 0.846726 1.04697 1.07188 1.06577 1.05933 0.859236 0.897039 1.12186 1.11542 1.12805 1.12163 0.877944 0.853101 1.10945 1.11541 0.853098 0.865665 1.09695 1.10325 1.10962 1.11556 1.10947 0.884535 1.13418 1.12796 0.865786 1.122 1.12792 1.13421 0.865399 1.1344 1.14052 1.12182 0.90913 1.12176 1.11575 1.11546 0.865717 1.12179 1.10962 1.08413 1.10332 0.852923 0.859549 1.07822 1.09087 0.853367 1.08423 0.878357 0.790472 1.07187 0.859508 1.06547 0.877938 1.07803 1.0904 0.840523 1.06539 0.77193 1.07211 1.10305 0.82797 0.884339 1.09708 0.777881 1.09709 1.11544 1.10945 0.853086 0.871664 1.10305 1.08425 1.08417 1.06568 1.07194 0.846757 1.09059 1.09692 1.09043 1.15957 0.803333 1.15927 1.15916 0.871752 1.1595 0.790422 1.15962 1.16587 0.796885 1.15334 1.15313 1.15324 0.784342 0.871703 0.772011 1.15913 0.86563 1.15928 0.784189 1.16545 1.16577 1.17202 0.796902 1.15939 0.815804 0.878225 1.16579 0.797104 1.17179 1.16554 1.15941 0.778243 1.15944 1.15959 0.80313 1.16545 1.17199 1.14681 1.1593 0.884185 1.14679 0.759462 0.790714 1.15302 1.1532 0.89053 0.790454 0.74702 1.14674 1.15307 0.797081 1.14072 0.815726 1.14686 1.14077 0.796647 1.15289 0.840761 1.15309 1.16557 0.796826 1.16541 0.834518 1.17212 1.16581 0.802978 1.15956 0.846962 1.15936 0.803126 1.15308 1.14669 0.84068 1.1531 0.747118 0.803063 1.15962 0.828237 1.15294 0.809279 1.15915 1.17186 0.809212 0.827908 1.17807 0.803177 1.17194 1.1721 0.797012 1.17195 0.821893 0.809572 1.17817 0.834433 0.771821 0.815537 1.16547 0.85322 1.17798 1.16566 0.846958 1.16573 1.17177 0.82813 1.17813 0.840563 1.17803 1.17827 1.17828 1.18417 0.821657 0.85948 1.18438 1.18437 1.17205 0.859204 1.18422 1.17825 1.18456 1.17827 0.784346 0.865503 1.16541 1.17208 1.1779 1.17195 0.865429 0.797037 1.16562 1.15936 1.15303 0.778311 1.16564 0.878223 1.15288 1.15948 1.17211 0.897109 1.17194 1.17205 1.17192 1.1655 1.16575 0.884405 1.14704 1.15937 1.15937 0.871738 1.15958 0.852991 1.15326 1.12823 1.14048 1.13426 1.13447 0.859211 1.14064 1.12807 1.12834 1.11543 1.12197 0.852921 1.12789 1.1471 1.13462 0.871918 0.7531 1.14674 0.859146 1.14667 1.14082 1.14083 0.865543 1.13431 1.12827 1.12184 1.13446 1.14058 1.10961 1.10334 1.09671 1.12189 1.1157 1.10289 1.10957 1.09062 1.10326 0.759212 1.1029 1.09674 1.11563 1.10937 1.12812 1.1346 1.12211 0.777886 1.11543 1.12179 1.10941 1.1154 1.10939 1.10307 1.09702 0.809219 1.14061 1.14082 1.14667 1.14699 1.15313 0.815722 1.15313 1.1467 1.14681 1.1343 1.14052 0.796631 1.14671 1.14046 1.15328 1.15288 1.15951 0.790744 1.15328 1.15321 1.14674 1.14048 0.79082 1.14668 1.15309 0.803278 1.14668 1.1281 1.128 0.80324 1.13461 1.12825 1.12188 1.11586 1.10916 1.10915 0.765404 1.1219 1.11579 1.10922 1.13432 1.14045 1.12808 1.1406 0.803034 0.772018 1.1346 1.12832 0.803218 1.12205 0.797009 1.11553 1.11541 0.809352 1.13421 1.12174 0.778237 0.772112 1.10919 1.04667 1.02799 1.0221 0.815705 1.0406 1.03458 1.00925 0.990554 0.78446 0.99066 1.01574 1.01578 0.996692 0.834482 1.04058 1.03461 1.02792 1.04087 0.778077 1.05333 1.04042 1.02803 0.796829 1.02195 1.00306 1.0221 1.03439 1.01574 0.828342 0.997017 1.02211 0.821679 0.797116 0.971844 0.972014 0.865558 0.959151 0.840763 0.98433 0.77822 0.859428 0.984175 0.771743 0.978354 0.846676 0.784156 0.853338 0.815579 0.965808 0.865727 0.821923 0.959603 0.809235 0.877877 0.834217 0.947029 0.896649 0.846627 0.878013 0.828068 0.940507 0.897093 0.815849 0.815438 0.909369 0.940462 0.903223 0.822015 0.934243 0.79052 0.821834 0.98446 0.915764 0.834202 0.978118 0.828256 0.872106 0.828246 0.97169 0.846698 0.847034 0.809285 1.00925 0.846699 0.978203 0.840657 0.796921 0.990771 0.890613 0.840444 0.797119 0.965771 0.853361 0.840601 0.865434 0.846686 0.934232 0.859185 0.853373 0.803344 0.928081 0.840659 0.972051 0.853202 0.903115 0.946675 0.846686 0.909268 0.940707 0.915423 0.834298 1.04691 1.05933 1.03451 0.859373 1.05913 0.790506 1.05921 0.940741 0.852994 0.790651 1.05302 1.02791 0.859343 1.02816 1.02207 0.796781 1.04672 0.909274 0.796655 0.790649 1.01586 0.803336 0.952979 0.803141 1.02194 0.809623 1.06553 0.947 1.06562 0.796858 1.05936 0.809424 1.07792 1.07791 0.803351 1.05915 0.790464 0.809318 1.05301 0.796839 0.78432 0.815624 1.04038 0.796955 1.01555 1.05322 0.759598 0.79044 1.04667 0.809568 0.778035 0.796971 0.81542 1.00333 0.790807 0.802976 1.00957 0.809166 0.784386 0.796948 0.84062 0.996645 0.796809 0.803045 0.83454 1.00933 0.815485 0.803108 0.990813 0.822058 0.821995 0.990828 0.80955 0.853306 0.978071 0.834388 0.803222 0.859255 0.952953 0.847122 0.827987 0.809592 0.984621 0.822009 0.809186 0.815439 0.815498 0.984601 0.809503 0.815833 0.822016 0.965779 0.815457 0.834279 0.840602 0.959469 0.815594 0.827975 1.00924 0.821852 0.828331 1.0154 0.828027 0.821724 0.765788 1.00331 0.890539 0.809224 0.797004 0.815501 0.890579 0.896845 1.03423 0.822076 0.890494 0.809516 1.03432 0.846629 0.909127 0.82198 1.02168 0.853225 0.89671 0.827977 0.990389 0.803111 0.903333 0.853192 0.959517 0.809472 0.834462 0.909566 0.971892 0.828116 0.821811 0.903197 1.00316 0.822111 0.871871 0.897047 0.990431 0.828257 0.903002 0.828116 0.965436 0.840398 0.928226 0.828109 0.865823 0.897033 0.890461 0.915548 0.840836 0.859139 0.834619 0.915584 0.865621 0.903274 0.83418 0.909501 0.846727 0.871711 0.834453 0.902993 0.902925 0.927912 0.84706 0.840382 0.915702 0.859253 0.915381 0.853031 0.92201 0.865551 0.928302 0.847051 0.934269 0.796724 0.934496 0.802955 0.859465 0.803257 0.934149 0.928272 0.802908 0.921658 0.946984 0.815496 0.897014 0.909586 0.821676 0.853137 0.809208 0.915547 0.859375 0.871905 0.809319 0.940854 0.890566 0.815531 0.840697 0.877889 0.940478 0.821659 0.915618 0.884619 0.928295 0.815505 0.890846 0.934521 0.834142 0.909595 0.921785 0.890446 0.840537 0.921884 0.821974 0.903339 0.921759 0.934591 0.809367 0.928199 0.821773 0.965852 0.878292 0.815611 0.909342 0.909172 0.821989 0.946954 0.827887 0.903108 0.903018 0.828284 0.940669 0.8971 0.828116 0.87803 0.840788 0.909399 0.884504 0.853217 0.847036 0.878276 0.878045 0.834449 0.940465 0.871907 0.846855 0.921916 0.853222 0.815671 0.884461 0.859625 0.940479 0.87189 0.809618 0.834342 0.890784 0.959215 0.847094 0.80313 0.934402 0.909609 0.840711 0.928262 0.828164 0.946968 0.853272 0.896825 0.834289 0.847023 0.915603 0.859271 0.809212 0.928223 0.953245 0.846821 0.915869 0.803007 0.959508 0.872054 0.921716 0.971947 0.85919 0.759314 0.928341 0.85292 0.978055 0.934363 0.871899 0.971925 0.921831 0.865602 0.984276 0.92201 0.853265 0.915745 0.859325 0.771717 0.965434 0.865526 0.928214 0.865653 0.928153 0.952994 0.859354 0.921643 0.965439 0.953003 0.871826 0.834228 0.959477 0.872025 0.946922 0.940479 0.877969 0.940425 0.809436 0.959423 0.878316 0.971647 0.79087 0.946915 0.890772 0.959593 0.959325 0.946691 0.821968 0.90309 0.978138 0.940831 0.884433 0.990598 0.940532 1.01567 0.828 0.953365 0.896708 0.99057 0.947077 0.8221 0.990819 0.953163 0.965436 0.972063 0.996707 0.965495 0.796995 0.971951 0.977884 0.978308 0.972058 1.02173 0.965748 0.996785 0.953255 0.815851 0.959413 1.0033 0.971849 1.02171 1.00303 0.965717 1.00927 0.978139 0.777876 1.02837 1.00937 1.02192 0.946983 1.02811 1.02798 0.765641 1.04075 1.04696 1.01568 0.940613 0.784347 1.02795 1.02192 0.934402 1.03461 1.04076 0.953258 1.03444 1.04705 0.78414 1.05309 1.04668 0.946926 1.04055 1.05947 0.953079 0.952886 0.940618 0.934483 0.977897 0.934332 0.921815 0.777938 0.984487 0.93423 0.96584 0.915398 0.971762 0.946717 0.89074 0.959354 0.940855 0.971903 0.90936 0.940441 0.897053 0.947062 0.984429 0.884586 0.959551 1.00935 0.877913 0.965581 1.02807 0.890391 0.959413 0.977937 0.971909 0.884326 0.996858 0.959197 0.871672 1.03449 0.959159 0.846761 1.00333 0.952929 0.953118 0.959558 0.928116 0.990732 0.959503 0.953158 0.953271 0.965529 0.965746 0.90312 0.978334 0.965743 0.92807 0.996766 0.946735 0.878348 1.00303 0.915669 0.809408 0.871783 1.02818 0.915689 0.87829 0.896805 0.803024 1.02205 0.884437 1.04077 0.896751 0.865598 1.02209 1.03416 0.890439 1.04081 0.859236 1.0406 1.03439 0.884175 0.865537 0.815623 1.04704 0.884294 1.05296 0.809234 0.902894 1.05302 0.871788 1.04685 1.06564 0.89057 1.05915 0.802964 1.05917 0.865789 0.846914 1.06587 1.05324 0.865565 0.79707 0.871739 0.828148 1.04676 0.784416 1.05306 1.05918 0.89085 0.809509 0.828229 1.04698 0.878089 1.05914 1.06565 0.80321 1.07164 1.06576 0.84075 1.06564 1.07823 0.815709 0.902978 1.07835 0.790824 0.81556 0.902945 0.803169 0.890474 0.796938 0.84081 0.821803 0.909388 0.834521 0.915604 0.809471 0.790537 0.909292 0.815452 0.821957 0.915609 0.834226 0.802983 0.896839 0.815867 0.809508 0.765693 0.897015 0.822043 0.884157 0.821698 0.834419 0.902942 0.815716 0.840455 0.834606 0.890418 0.840675 0.828354 0.827904 0.903178 0.821899 0.840783 0.871633 0.82821 0.865828 0.859168 0.803069 0.846685 0.865861 0.828307 0.853065 0.877934 0.840552 0.87789 0.847014 0.871712 0.834508 0.847027 0.840448 0.834345 0.853036 0.834556 0.796677 0.83446 0.821685 0.834197 1.08449 0.846769 1.08427 0.81581 0.852959 0.853133 0.840763 0.840625 0.821738 1.07199 0.846863 0.846921 1.09669 0.8342 0.859494 1.07163 0.884384 1.09058 0.827922 0.865409 0.884563 1.04706 0.884287 0.828081 0.890498 1.05298 0.92196 0.896685 0.815794 1.04671 0.915798 0.890768 0.822043 1.0405 0.859158 0.859568 0.834245 1.05333 0.877918 0.828268 0.878272 0.872122 1.06582 0.896875 0.828259 0.853124 1.05306 0.834211 0.884461 0.909356 1.09076 1.07821 0.865529 1.08434 0.84045 1.09695 0.928222 0.865536 1.10336 0.846662 0.859186 1.08439 0.840682 0.928144 0.946769 1.0717 0.853088 0.928188 1.06542 0.853165 0.934603 0.921825 1.05934 0.859223 0.953196 0.940721 0.84073 1.07825 0.928339 0.846709 0.878154 1.0593 0.915722 0.847099 0.915777 1.0468 0.859364 0.90927 0.903083 0.853266 1.05917 0.909326 0.890507 0.865386 1.04059 0.915425 0.896651 1.02789 0.903314 0.922072 1.04664 0.934212 0.921935 1.03452 0.971986 0.915645 0.984262 0.959507 0.997109 0.921963 0.946851 0.94047 0.996906 0.934601 0.965551 1.02799 0.947098 0.727947 1.0033 0.953102 0.984168 0.734523 0.965541 0.971974 0.953101 0.784316 0.934459 0.977911 0.927918 1.04068 0.927877 0.871704 1.04055 0.934458 1.00923 0.940781 0.796948 1.02809 0.947101 0.853148 0.784245 1.03438 0.865597 0.89682 1.01557 0.790566 0.902954 0.997091 0.809568 0.90299 0.978215 0.803067 0.996981 0.896836 0.790421 0.990536 0.909518 0.765694 1.09664 0.928351 1.10318 0.878062 0.790636 0.915523 1.09039 0.859559 0.871717 0.797 0.834199 1.10328 0.909276 0.809162 0.846657 1.09074 0.871952 0.859165 0.878024 1.09086 0.797086 0.871946 0.902965 1.07199 0.884526 0.803173 1.05333 0.909134 0.884361 0.890671 0.934189 1.04665 0.921664 0.915401 0.703292 1.07807 0.921694 0.927959 1.08424 0.940846 0.959415 0.759193 0.934176 1.0596 0.778187 0.946878 0.928101 0.940795 1.10934 0.909569 0.934285 1.10303 0.890842 0.965825 1.09668 0.953088 0.896809 1.09676 0.884554 0.915601 0.865425 1.0967 0.921945 0.922081 0.715789 1.09066 0.928123 1.07197 0.759577 0.878143 0.915653 1.07806 0.909285 1.06581 0.74688 0.896895 1.07208 0.947112 0.753162 1.0783 0.953069 0.953148 0.765856 1.06585 0.978323 0.772002 1.05953 0.946856 0.777987 1.04071 0.959354 1.02171 0.79672 0.959586 1.05305 0.82175 0.984289 1.02826 0.802995 0.990843 1.02176 0.822027 1.00309 1.00295 0.978274 0.815417 0.984247 0.990765 0.778252 0.978126 0.784499 0.772119 1.00914 0.990638 0.990751 0.790649 1.01585 0.977935 0.75329 1.00947 1.05308 0.777895 1.01559 0.815746 0.759188 1.03448 1.03428 1.0408 0.809372 1.00932 0.821744 1.00954 1.04062 0.80926 1.04684 0.971976 1.01551 0.821906 0.996695 1.02173 0.828177 0.98414 1.01553 0.978029 1.00324 0.809598 0.996996 1.0031 0.834479 1.00337 0.840811 1.01574 0.965756 1.02212 0.834135 0.990784 1.02821 0.847053 1.02208 0.934282 0.840854 0.997095 0.934502 1.03454 0.821836 0.921756 1.05317 0.815552 0.9405 0.759372 1.07185 1.07797 0.815633 0.947022 0.752985 1.05956 0.909215 0.827882 1.05332 0.903115 0.84075 1.07195 1.07809 0.884549 1.07197 0.853209 1.08444 1.08416 0.896649 0.865707 1.09685 1.09066 0.896863 0.85289 1.10294 0.846796 0.909199 0.784241 1.04699 0.859216 0.859269 0.790497 1.08418 0.890639 0.784163 0.878337 0.940485 0.802905 1.06542 0.859382 0.946702 0.803317 0.921845 0.871926 0.79705 1.05961 0.853139 0.959204 0.77197 1.04062 0.953263 0.865446 0.934573 1.07209 0.859512 1.08433 0.928329 1.09701 0.790744 1.09073 0.871718 0.915671 1.09065 0.884458 1.0971 1.1032 0.815437 0.865814 0.877936 0.921668 0.81558 0.971934 0.877927 0.903179 0.809212 0.965816 0.865498 0.822074 0.890795 0.996725 0.822008 0.877997 0.878322 0.965811 0.802993 0.828128 0.796638 1.00288 0.84701 0.834342 0.990752 0.834144 0.78451 1.0095 0.828321 0.809422 1.02826 0.809198 0.85916 0.796869 0.847045 0.790756 1.03456 0.840692 0.790768 0.834484 1.01581 0.759423 1.01539 0.82801 0.828035 1.05304 0.765793 0.834414 1.04085 0.984473 0.840485 0.753136 0.984361 0.840795 1.00303 0.840744 0.86569 1.00918 0.759303 0.852998 0.990715 0.75915 0.871746 0.859532 1.01545 0.853002 0.74668 0.997084 0.871943 0.75321 0.878118 0.884524 1.0344 1.04054 0.865456 0.877958 1.03444 1.02814 0.87163 0.784145 0.88417 1.02807 0.859459 1.05309 0.972024 0.846993 1.07795 0.965598 0.865588 0.965675 1.04704 0.853033 0.971772 0.877946 1.07182 0.952934 1.06571 0.940755 0.872083 1.07189 0.971835 0.87835 1.07837 0.884577 0.92821 1.07812 0.934612 0.846703 1.08434 0.834367 0.896848 1.09055 0.940556 0.853221 0.915742 1.07813 0.840408 0.909225 1.08423 0.85914 0.984322 1.09052 0.840681 0.959549 1.06571 0.953052 0.85962 1.05916 0.847105 0.928279 1.06565 0.859139 0.947083 0.853271 1.05946 0.896831 0.865678 0.903031 1.0655 0.871924 0.915663 1.07822 0.87818 0.921871 0.897116 1.08413 0.859433 0.865537 1.10294 0.865709 1.0845 0.871858 0.871628 1.09705 0.853109 0.878342 0.871999 1.09692 0.872058 0.846948 1.03455 1.04712 0.878318 1.05324 0.884398 1.05945 1.05292 0.884377 1.05937 1.06538 0.890538 1.05946 1.06571 0.890852 1.07798 1.07195 1.07833 1.0721 0.859541 0.85941 1.08439 0.878214 1.05957 1.07201 0.872021 0.85931 1.0779 1.06585 1.07177 0.865575 0.828143 1.08461 0.872051 1.08436 0.884586 0.865755 0.865482 0.871636 0.865757 0.88436 0.871942 0.871792 0.878109 0.890564 0.890874 0.884138 0.878368 0.88445 0.896899 0.902928 0.896837 0.896841 0.896688 1.09076 0.903129 0.903123 1.09664 1.09046 0.909549 1.08428 1.07801 1.09057 1.08428 0.921933 0.840624 1.09679 0.909332 1.09042 1.09701 0.878211 1.09058 1.10293 1.10317 0.884606 1.10336 0.884407 1.09046 1.09703 1.10298 0.89679 1.09688 1.10299 1.10939 0.890862 1.11548 1.1092 1.11575 1.10924 1.11547 0.896891 1.10923 1.12185 1.07172 1.17814 0.896972 1.07822 1.18445 1.18424 1.08448 1.19055 1.07821 1.18435 1.07209 0.890835 1.18436 1.0904 1.17203 1.09676 1.1908 1.09691 1.18413 0.897078 1.09079 1.17803 1.1842 1.10305 1.19689 1.09681 0.903024 1.10302 1.1907 1.08423 1.1906 1.08442 1.19073 1.09056 0.903218 1.19068 1.08446 1.19069 1.0906 1.1905 1.10305 0.909304 1.19056 1.11547 1.18448 1.10949 0.909232 1.17837 1.0967 1.172 1.10927 1.17814 0.903184 1.1155 1.17175 1.10328 1.16566 1.11555 0.909514 1.1657 1.10938 1.17189 1.10917 1.17797 1.11587 1.1592 1.1156 1.15932 1.12176 1.1592 0.915845 1.1283 1.16552 0.752891 1.12207 1.16538 1.12174 0.903024 1.12803 1.16557 1.12799 1.1779 0.752941 1.1096 0.909549 1.12836 1.16581 1.12168 0.921742 1.12195 1.17203 1.11578 1.1219 1.1717 0.928089 1.12804 1.16576 1.13456 1.17206 1.12837 1.17803 0.915823 1.13433 1.17163 1.14078 1.15934 0.909209 1.10296 1.19669 1.11568 1.19664 1.10948 1.19674 0.915481 1.10919 1.19062 0.921706 1.19071 1.10952 1.18452 1.12174 0.921759 1.19668 1.1094 1.19064 1.17797 1.11566 0.90945 1.12204 1.17173 1.11545 1.18459 1.12189 1.17203 1.11577 0.902904 1.11543 1.18429 1.12804 1.19068 1.12187 1.1846 1.12789 1.12193 0.915786 1.19705 1.12821 1.1969 1.12201 1.19084 1.12834 0.915539 1.1906 1.12819 1.17793 1.12212 0.928293 1.1344 1.17831 0.921784 1.13456 1.17833 1.12798 1.18416 1.11587 1.18429 0.921689 1.16585 1.11567 1.17813 1.12183 0.928098 1.16542 1.13429 1.17196 1.12831 1.17813 0.915583 1.12794 1.17207 1.17179 1.1281 1.17193 1.1219 1.18452 0.934443 1.12822 1.18435 1.12211 1.17805 1.13432 1.17814 1.1404 1.17799 1.1404 1.18423 1.12827 0.928079 1.13415 1.17803 1.1343 1.18437 1.12823 1.19039 1.13418 0.940527 1.14045 1.17176 0.927894 1.1281 1.18422 1.1342 1.17833 1.13423 1.17834 0.921653 1.18427 1.13436 1.15935 1.15317 0.934562 1.13419 1.15924 0.934318 1.15931 1.13427 1.15328 1.14066 1.14664 0.940412 1.14065 1.1344 1.15946 1.15297 1.14076 0.947003 1.14082 1.16554 1.14071 1.16541 0.940632 1.15918 1.14671 1.15322 1.13437 1.16573 1.14066 1.16541 0.934189 1.14038 1.1717 1.14056 1.14663 0.940453 1.14682 1.153