# vtk DataFile Version 3.0
vtk output
ASCII
DATASET UNSTRUCTURED_GRID
POINTS 22747 float
0 0 0
1 0 0
1 1 0
0 1 0
0 0 0
0 0 0
1 0 0
1 1 0
0 1 0
0 0 0
0 0 0
1 0 0
1 1 0
0 1 0
0 0 0
0 0 0
1 0 0
1 1 0
0 1 0
0 0 0
0 0 0
1 0 0
1 1 0
0 1 0
0 0 0
0 0 0
1 0 0
1 1 0
0 1 0
0 0 0
0 0 0
1 0 0
1 1 0
0 1 0
0 0 0
0 0 0
1 0 0
1 1 0
0 1 0
0 0 0
0 0 0
1 0 0
1 1 0
0 1 0
0 0 0
0 0 0
1 0 0
1 1 0
0 1 0
0 0 0
0 0 0
1 0 0
1 1 0
0 1 0
0 0 0
0 0 0
1 0 0
1 1 0
0 1 0
0 0 0
0 0 0
1 0 0
1 1 0
0 1 0
0 0 0
0 0 0
1 0 0
1 1 0
0 1 0
0 0 0
0 0 0
1 0 0
1 1 0
0 1 0
0 0 0
0 0 0
1 0 0
1 1 0
0 1 0
0 0 0
0 0 0
1 0 0
1 1 0
0 1 0
0 0 0
0 0 0
1 0 0
1 1 0
0 1 0
0 0 0
0 0 0
1 0 0
1 1 0
0 1 0
0 0 0
0 0 0
1 0 0
1 1 0
0 1 0
0 0 0
0 0 0
1 0 0
1 1 0
0 1 0
0 0 0
0 0 0
1 0 0
1 1 0
0 1 0
0 0 0
0 0 0
1 0 0
1 1 0
0 1 0
0 0 0
0.938623 0 0
1 0 0
1 0.0464189 0
0.938623 0 0
0 0 0
1 0 0
1 1 0
0 1 0
0 0 0
0 0 0
1 0 0
1 1 0
0 1 0
0 0 0
0 0 0
1 0 0
1 1 0
0 1 0
0 0 0
0 0 0
1 0 0
1 1 0
0 1 0
0 0 0
0 0 0
1 0 0
1 1 0
0 1 0
0 0 0
0 0 0
1 0 0
1 1 0
0 1 0
0 0 0
0 0 0
1 0 0
1 1 0
0 1 0
0 0 0
0 0 0
1 0 0
1 1 0
0 1 0
0 0 0
0 0 0
1 0 0
1 1 0
0 1 0
0 0 0
0 0 0
1 0 0
1 1 0
0 1 0
0 0 0
0 0 0
1 0 0
1 1 0
0 1 0
0 0 0
0.969728 0 0
1 0 0
1 0.0389773 0
0.969728 0 0
0 0 0
1 0 0
1 1 0
0 1 0
0 0 0
0 0 0
1 0 0
1 1 0
0 1 0
0 0 0
0 0 0
1 0 0
1 1 0
0 1 0
0 0 0
0 0 0
1 0 0
1 1 0
0 1 0
0 0 0
0.959413 0 0
1 0 0
1 0.0221281 0
0.959413 0 0
0.858742 0 0
1 0 0
1 0.155812 0
0.858742 0 0
0 0 0
0.0221804 0 0
0 0.0165897 0
0 0 0
0.988718 0 0
1 0 0
1 0.0157547 0
0.988718 0 0
0.90471 0 0
1 0 0
1 0.0569254 0
0.90471 0 0
0 0 0
0.179954 0 0
0 0.0774376 0
0 0 0
0 0 0
0.314266 0 0
0 0.173703 0
0 0 0
0.85381 0 0
1 0 0
1 1 0
0.328881 1 0
0.85381 0 0
0.714814 0 0
1 0 0
1 1 0
0.175705 1 0
0.714814 0 0
0.787394 0 0
1 0 0
1 0.146332 0
0.787394 0 0
0.881575 0 0
1 0 0
1 0.849767 0
0.683827 0.617939 0
0.641778 0.584985 0
0.858068 0.0534422 0
0.881575 0 0
0.786174 0 0
1 0 0
1 0.105163 0
0.786174 0 0
0.253 0 0
1 0 0
1 1 0
0.782145 1 0
0.589995 0.644974 0
0.253 0 0
0.409466 0 0
1 0 0
1 1 0
0.896536 1 0
0.537951 0.274498 0
0.409466 0 0
0.628442 0 0
1 0 0
1 0.295884 0
0.669879 0.0350194 0
0.628442 0 0
0.441423 0.289301 0
0.594893 0 0
1 0 0
1 0.766428 0
0.441423 0.289301 0
0 0 0
0.582672 0 0
0.37672 0.107774 0
0.222451 0.185659 0
0 0.293714 0
0 0 0
0.899917 0 0
1 0 0
1 1 0
0.147443 1 0
0.725515 0.223296 0
0.899917 0 0
0.687855 0 0
1 0 0
1 0.116259 0
0.687855 0 0
0.742522 0 0
1 0 0
1 0.408329 0
0.742522 0 0
0.470395 0 0
1 0 0
1 0.289978 0
0.470395 0 0
0.447718 0 0
1 0 0
1 0.614801 0
0.468693 0.0248559 0
0.447718 0 0
0.298417 0 0
1 0 0
1 0.460648 0
0.298417 0 0
0.843942 0 0
1 0 0
1 0.294475 0
0.843942 0 0
0.982122 0 0
1 0 0
1 1 0
0.622122 1 0
0.982122 0 0
0 0 0
1 0 0
1 0.00769096 0
0.289553 0.287518 0
0.207822 0.211345 0
0 0.00779892 0
0 0 0
0.332094 0 0
1 0 0
1 0.741843 0
0.942607 0.680655 0
0.332094 0 0
0.619709 0 0
1 0 0
1 0.590749 0
0.619709 0 0
0 0 0
1 0 0
1 0.0369265 0
0.261443 0.265853 0
0.206105 0.212234 0
0 0.00252086 0
0 0 0
0.845776 0 0
1 0 0
1 1 0
0.278833 1 0
0.845776 0 0
0.377849 0 0
1 0 0
1 0.391532 0
0.377849 0 0
0.134157 0 0
1 0 0
1 1 0
0.815278 1 0
0.611218 0.706388 0
0.134157 0 0
0.588088 0 0
1 0 0
1 0.188463 0
0.588088 0 0
0.943538 0 0
1 0 0
1 1 0
0.281642 1 0
0.641143 0.444897 0
0.943538 0 0
0.676713 0 0
1 0 0
1 0.172642 0
0.676713 0 0
0.156573 0 0
1 0 0
1 1 0
0.812492 1 0
0.612179 0.700638 0
0.156573 0 0
0.887753 0 0
1 0 0
1 0.0435522 0
0.951359 0.0254315 0
0.887753 0 0
0.313046 0 0
1 0 0
1 1 0
0.778553 1 0
0.611863 0.651152 0
0.313046 0 0
0.58251 0 0
1 0 0
1 0.287093 0
0.58251 0 0
0.920024 0 0
1 0 0
1 1 0
0.543915 1 0
0.900509 0.0491201 0
0.920024 0 0
0.504613 0 0
1 0 0
1 0.284535 0
0.504613 0 0
0.923949 0 0
1 0 0
1 1 0
0.527597 1 0
0.903349 0.049325 0
0.923949 0 0
0.23351 0 0
1 0 0
1 0.65154 0
0.23351 0 0
0.982982 0 0
1 0 0
1 1 0
0.655646 1 0
0.982982 0 0
0.447921 0 0
1 0 0
1 0.365844 0
0.447921 0 0
0.482399 0 0
1 0 0
1 0.652203 0
0.486758 0.00586975 0
0.482399 0 0
0.408339 0 0
1 0 0
1 0.730881 0
0.944503 0.665063 0
0.408339 0 0
1 0.125086 0
1 1 0
0.60791 1 0
1 0.125086 0
0.51182 0 0
1 0 0
1 0.65065 0
0.51182 0 0
0.637701 0 0
1 0 0
1 0.307726 0
0.676032 0.0345983 0
0.637701 0 0
0.836274 0 0
1 0 0
1 0.116966 0
0.836274 0 0
0.703935 0 0
1 0 0
1 0.310564 0
0.703935 0 0
0.938695 0 0
1 0 0
1 0.0418516 0
0.938695 0 0
0.79665 0 0
1 0 0
1 0.277186 0
0.79665 0 0
0.794544 0 0
1 0 0
1 0.0918658 0
0.912362 0.0541176 0
0.794544 0 0
0.875842 0 0
1 0 0
1 0.154006 0
0.875842 0 0
0.722472 0 0
1 0 0
1 0.308117 0
0.722472 0 0
0.825531 0 0
1 0 0
1 0.255999 0
0.825531 0 0
0.808554 0 0
1 0 0
1 0.100953 0
0.808554 0 0
0.937686 0 0
1 0 0
1 0.14655 0
0.937686 0 0
0.977798 0 0
1 0 0
1 0.0141543 0
0.977798 0 0
0.929557 0 0
1 0 0
1 0.0969842 0
0.929557 0 0
0.848867 0 0
1 0 0
1 0.0510071 0
0.96165 0.0389947 0
0.848867 0 0
0.999978 0 0
1 0 0
1 4.13901e-05 0
0.999978 0 0
0.625594 0 0
1 0 0
1 0.267954 0
0.625594 0 0
0.718781 0 0
1 0 0
1 0.111244 0
0.933139 0.0865001 0
0.718781 0 0
0.633119 0 0
1 0 0
1 0.178499 0
0.633119 0 0
0.479373 0 0
1 0 0
1 0.349751 0
0.479373 0 0
0.61179 0 0
1 0 0
1 0.245438 0
0.61179 0 0
0.590245 0 0
1 0 0
1 0.323752 0
0.590245 0 0
0.798857 0 0
1 0 0
1 0.11315 0
0.798857 0 0
0.773596 0 0
1 0 0
1 0.07982 0
0.773596 0 0
0.875111 0 0
1 0 0
1 0.205 0
0.875111 0 0
0.587925 0 0
1 0 0
1 0.236118 0
0.587925 0 0
0.87935 0 0
1 0 0
1 0.259076 0
0.87935 0 0
0.653252 0 0
1 0 0
1 0.174986 0
0.653252 0 0
0 0 0
1 0 0
1 0.0407404 0
0 0.370065 0
0 0 0
1 0.780147 0
1 1 0
0.877124 1 0
1 0.780147 0
0 0 0
1 0 0
1 0.094367 0
0.994973 0.0963706 0
0 0.47196 0
0 0 0
1 0.812762 0
1 1 0
0.90099 1 0
1 0.812762 0
0 0 0
1 0 0
1 0.110376 0
0.223416 0.350089 0
0 0.409743 0
0 0 0
1 0.544971 0
1 1 0
0.74836 1 0
1 0.544971 0
0 0 0
1 0 0
1 0.124409 0
0 0.801256 0
0 0 0
1 0.716649 0
1 1 0
0.829829 1 0
1 0.716649 0
0 0 0
0.0576858 0 0
0 0.0381397 0
0 0 0
0 0 0
1 0 0
1 0.0985401 0
0.408121 0.395215 0
0 0.591185 0
0 0 0
0 0 0
0.0110628 0 0
0 0.00802692 0
0 0 0
0.936589 0 0
1 0 0
1 0.134606 0
0.949337 0.0289007 0
0.936589 0 0
0 0 0
1 0 0
1 0.120739 0
0.405518 0.393348 0
0 0.571182 0
0 0 0
0 0 0
0.000899747 0 0
0 0.000736886 0
0 0 0
0 0 0
1 0 0
1 0.144331 0
0.433228 0.48129 0
0 0.726533 0
0 0 0
0 0.926028 0
0.160938 1 0
0 1 0
0 0.926028 0
0 0 0
0.0453101 0 0
0 0.0324269 0
0 0 0
0.0196405 0 0
1 0 0
1 0.107127 0
0.994239 0.109045 0
0.315094 0.320965 0
0.209899 0.21027 0
0.0196405 0 0
0 0.800897 0
0.339051 1 0
0 1 0
0 0.800897 0
0 0 0
0.106965 0 0
0 0.0691383 0
0 0 0
0.307987 0 0
1 0 0
1 0.529133 0
0.307987 0 0
0.246965 0 0
1 0 0
1 0.701307 0
0.246965 0 0
0 0 0
0.0135507 0 0
0 0.0135161 0
0 0 0
0 0.911104 0
0.124184 1 0
0 1 0
0 0.911104 0
0 0 0
1 0 0
1 0.139318 0
0.862337 0.209595 0
0 0.625347 0
0 0 0
0 0 0
0.000414711 0 0
0 0.000387221 0
0 0 0
0 0 0
0.0535896 0 0
0 0.0459749 0
0 0 0
0 0.985146 0
0.0229041 1 0
0 1 0
0 0.985146 0
0 0 0
1 0 0
1 0.11716 0
0.380589 0.375467 0
0 0.526843 0
0 0 0
0 0 0
0.0955405 0 0
0 0.0783987 0
0 0 0
0 0.969866 0
0.0563756 1 0
0 1 0
0 0.969866 0
0 0 0
0.0881979 0 0
0 0.0762858 0
0 0 0
0 0 0
1 0 0
1 0.121575 0
0.862655 0.203653 0
0.183182 0.590062 0
0 0.693507 0
0 0 0
0.839467 0 0
1 0 0
1 0.216988 0
0.839467 0 0
0 0.83808 0
0.343363 1 0
0 1 0
0 0.83808 0
0 0 0
0.0445771 0 0
0 0.0337851 0
0 0 0
0 0 0
1 0 0
1 0.734503 0
0.988722 0.728695 0
0 0.198132 0
0 0 0
0 0 0
0.0411294 0 0
0 0.033022 0
0 0 0
1 0.876579 0
1 1 0
0.912891 1 0
0.977576 0.907074 0
1 0.876579 0
0 0 0
0.0892145 0 0
0 0.0648644 0
0 0 0
0 0 0
1 0 0
1 0.702194 0
0.0724798 0.157287 0
0 0.112486 0
0 0 0
0 0 0
0.0753222 0 0
0 0.0509326 0
0 0 0
0 0.889591 0
0.170989 1 0
0 1 0
0 0.889591 0
0 0 0
0.171636 0 0
0.0251336 0.10557 0
0 0.122669 0
0 0 0
0 0.890325 0
0.176173 1 0
0 1 0
0 0.890325 0
0 0 0
1 0 0
1 0.663322 0
0.0686643 0.137795 0
0 0.097661 0
0 0 0
0 0 0
0.0830838 0 0
0 0.0637755 0
0 0 0
0 0.876036 0
0.177425 1 0
0 1 0
0 0.876036 0
0 0 0
0.218338 0 0
0 0.203889 0
0 0 0
0 0.967159 0
0.0662209 1 0
0 1 0
0 0.967159 0
0 0 0
1 0 0
1 0.354649 0
0.696765 0.496662 0
0.401574 0.629335 0
0 0.328556 0
0 0 0
0 0.850823 0
0.202247 1 0
0 1 0
0 0.850823 0
0 0 0
1 0 0
1 0.806296 0
0.936487 0.767157 0
0 0.166053 0
0 0 0
0 0 0
1 0 0
1 0.196549 0
0 0.70098 0
0 0 0
0 0.879615 0
0.135569 0.927925 0
0.277087 0.981984 0
0.319352 1 0
0 1 0
0 0.879615 0
0 0.950859 0
0.12063 1 0
0 1 0
0 0.950859 0
0.0311248 0 0
1 0 0
1 0.554351 0
0.794564 0.444296 0
0.0311248 0 0
0 0.929732 0
0.186648 1 0
0 1 0
0 0.929732 0
0 0 0
1 0 0
1 0.210481 0
0 0.637293 0
0 0 0
0 0.836866 0
0.237246 1 0
0 1 0
0 0.836866 0
0 0 0
1 0 0
1 0.741534 0
0.809276 0.640183 0
0 0.186284 0
0 0 0
0 0.965783 0
0.0210205 1 0
0 1 0
0 0.965783 0
0 0.77159 0
0.316704 1 0
0 1 0
0 0.77159 0
0 0 0
1 0 0
1 0.585656 0
0.00433702 0.136628 0
0 0.134574 0
0 0 0
0 0.422812 0
0.750637 1 0
0 1 0
0 0.422812 0
0 0.578286 0
0.120912 0.823339 0
0.203996 1 0
0 1 0
0 0.578286 0
0 0 0
1 0 0
1 0.725798 0
0.826536 0.637486 0
0 0.193161 0
0 0 0
0 0.718005 0
0.489 1 0
0 1 0
0 0.718005 0
0 0.673897 0
0.197189 1 0
0 1 0
0 0.673897 0
0 0.692472 0
0.436353 1 0
0 1 0
0 0.692472 0
0 0 0
1 0 0
1 0.702525 0
0.0624388 0.116041 0
0 0.0757247 0
0 0 0
0 0.715148 0
0.424638 1 0
0 1 0
0 0.715148 0
0 0 0
0.160072 0 0
0 0.300273 0
0 0 0
0.432868 0 0
1 0 0
1 0.400507 0
0.432868 0 0
0.473423 0 0
1 0 0
1 0.371541 0
0.473423 0 0
0 0.640716 0
0.367951 0.857847 0
0.594544 1 0
0 1 0
0 0.640716 0
0 0.800574 0
0.0725752 1 0
0 1 0
0 0.800574 0
0.381033 0 0
1 0 0
1 0.491259 0
0.381033 0 0
0 0.845502 0
1 0.526743 0
1 1 0
0 1 0
0 0.845502 0
0.202971 0 0
1 0 0
1 0.811393 0
0.202971 0 0
0 0.980646 0
0.171115 0.907808 0
1 0.591504 0
1 1 0
0 1 0
0 0.980646 0
0 0 0
1 0 0
1 0.220884 0
0.0707954 0.559933 0
0 0.584011 0
0 0 0
0.306381 0 0
1 0 0
1 0.621867 0
0.306381 0 0
0 0.655658 0
0.364726 0.85919 0
0.601914 1 0
0 1 0
0 0.655658 0
0 0.678154 0
0.347876 0.866209 0
0.580364 1 0
0 1 0
0 0.678154 0
0.0565764 0 0
1 0 0
1 0.175329 0
0.396555 0.410318 0
0.221615 0.204202 0
0.0565764 0 0
0.428516 0 0
1 0 0
1 0.452697 0
0.428516 0 0
0 0.415986 0
0.529674 0.806522 0
0.784308 1 0
0 1 0
0 0.415986 0
[...]
CELL_DATA 4530
FIELD FieldData 3
weight 1 4530 float
 1.17803 1.17166 1.178 1.1718 1.18419 1.17837 1.17814 1.1844 1.19038 1.19086 1.19071 1.1844 1.18417 1.19085 1.17171 1.17817 1.17799 1.1782 1.18435 1.17817 1.18444 1.17804 1.18446 0.728036 1.18416 1.18436 1.18422 1.18425 1.19064 1.17811 1.18441 1.18413 1.18462 1.19079 1.18439 0.772036 1.17819 1.18454 1.19086 1.19058 0.79692 0.79053 0.740411 0.77176 0.803001 0.815395 0.828007 0.909299 0.928355 0.834602 0.902977 0.853098 0.996861 0.953166 0.853313 0.890393 0.890539 0.909431 0.878357 0.846925 0.890579 0.871999 0.903333 0.846706 0.897083 0.922027 0.884463 0.859548 0.934269 0.940848 0.909127 0.972034 0.884339 0.922087 0.877938 0.965391 0.859549 0.965851 0.871664 0.91575 0.896845 0.921762 0.927912 0.903001 0.909566 0.884338 0.859204 0.903318 0.87794 0.846726 0.840522 0.802932 0.82208 0.827883 0.878225 0.796836 0.803331 0.821695 0.871752 0.84079 0.828253 0.784387 0.865399 0.809143 0.884185 0.897047 0.890494 0.915548 0.903197 0.903274 0.871703 0.89053 0.80947 0.909586 0.840384 0.903002 0.946922 0.796875 0.959423 0.790864 0.953003 0.847093 0.965436 0.815454 0.871942 0.96584 0.865386 0.815815 0.972063 0.859223 0.971951 0.859247 0.865757 0.940425 0.884168 0.88436 0.915702 0.934149 0.85941 0.83427 0.959325 0.853088 0.865482 0.828356 0.946915 0.878368 0.846817 0.872051 0.978308 0.771962 0.922081 0.865575 0.996631 0.85931 0.759263 0.878109 0.98428 0.871792 0.85942 0.88445 0.865862 0.990718 0.871636 0.840792 0.903123 0.859276 1.00333 0.846884 0.996991 0.977884 0.890781 0.852941 0.965748 0.878117 0.965495 0.865796 1.00937 0.771671 0.871662 0.99047 0.947089 0.852996 1.00337 0.884431 0.821989 0.88433 0.997086 0.8782 0.796921 0.92201 0.921658 0.909158 0.834275 0.928295 0.984515 0.940478 0.953266 0.953365 0.940854 0.909511 0.896887 0.946691 0.934521 0.928333 0.915547 0.746727 0.928154 0.940532 0.947077 0.871712 0.940831 0.946983 0.859609 0.915504 0.953255 0.896868 0.972058 0.834209 0.89678 0.971849 0.840817 0.890577 0.978139 0.777945 0.92834 0.784587 1.00337 0.878092 0.978243 0.827925 0.884205 0.959413 0.902934 0.953163 1.02209 0.953258 0.896914 0.909492 0.871761 0.959551 0.927993 0.928034 0.984323 0.940646 0.965717 1.19064 1.19084 1.19705 0.977937 0.840706 1.19711 1.1969 1.19668 1.18416 0.877935 1.17793 1.19065 1.1906 1.19665 1.19081 1.1904 1.19694 1.19663 1.19702 1.19665 1.19046 0.890571 1.19039 1.18443 1.19071 1.17831 1.17203 1.17814 1.18429 0.953258 1.17833 1.18423 0.86563 1.17207 0.934129 1.17813 1.17799 1.17813 1.19039 1.18452 1.18423 0.990516 1.18462 1.18459 1.17811 1.19069 1.19087 1.17803 1.17833 1.18448 0.96577 1.18422 1.18437 1.19712 0.953043 1.19693 1.19696 0.896948 1.19669 0.859236 1.1971 1.19708 1.19702 1.19042 0.97833 1.19041 1.19706 1.19053 0.865503 0.971786 1.19707 1.1908 1.19687 1.19701 0.878223 0.865841 1.19686 1.19678 1.19071 0.897109 0.878219 1.1907 1.19687 1.19045 0.909501 1.18422 0.934404 1.19666 1.18423 0.884405 0.928249 1.18443 1.19055 1.1844 0.88431 1.19049 1.1782 1.17816 1.18439 0.934244 1.19065 1.19084 0.871738 0.940601 1.19075 1.19669 1.18417 1.19042 0.890446 1.19081 0.965741 1.19672 0.878292 1.19687 1.19056 0.98416 1.13413 1.15926 1.18456 0.927998 1.18459 1.17803 0.946872 1.17206 1.16576 1.17179 1.00317 1.15934 0.74082 1.16541 1.15935 1.15328 1.15317 1.16541 1.16554 1.15918 1.17176 1.17805 1.16573 1.17832 1.18435 1.17193 1.1717 1.15322 1.15946 1.17167 1.16571 1.14663 1.15309 1.14671 1.14664 1.14668 1.14048 1.14046 1.1281 1.13461 1.12211 1.13432 1.128 1.14065 1.14668 0.834416 1.14045 1.15325 1.15297 1.1344 0.884504 1.12808 1.11543 0.796625 1.1406 1.12825 1.1346 1.18427 1.17834 1.17815 0.821719 0.878276 1.17817 1.17165 0.859139 1.17168 0.846662 1.16545 1.16583 1.15955 1.16546 1.19074 0.865678 1.17814 1.17181 1.16541 1.19052 0.871924 1.14071 0.915603 1.15292 1.153 1.15919 0.928341 1.15324 1.12804 1.14705 0.85962 0.903339 1.15942 1.14076 1.15947 0.940613 0.809189 1.14712 1.14668 0.853192 1.12791 0.921716 1.14699 0.853226 1.12205 0.946926 1.13458 0.85914 1.13421 1.12832 0.909342 1.15918 0.834374 0.871858 1.14074 0.915869 1.15315 1.12817 1.13455 0.878318 1.12799 0.903108 0.878342 1.12212 1.11541 1.12204 0.934363 0.884377 0.828309 1.14059 1.12174 0.928214 0.872027 1.11563 1.19682 0.928223 1.19683 1.19686 1.19052 0.92201 0.896972 1.17799 0.896752 1.11587 0.959413 1.19676 0.865755 1.19053 0.915527 0.953079 1.09065 0.87818 1.11569 1.17166 1.14707 1.19076 0.922055 1.12821 0.884138 1.15932 0.965581 0.902963 0.884398 0.872058 0.94072 1.08438 0.902928 0.959576 0.971909 1.09678 0.890874 0.959208 1.14083 1.07828 0.934402 0.915786 1.08461 0.99083 0.940618 1.16564 1.19684 1.10933 0.934332 0.896837 1.15335 0.952916 0.946717 0.921784 1.19667 1.18445 0.90945 1.15337 0.965813 1.14673 0.959197 1.1658 0.928293 1.17208 1.18425 0.996856 0.952929 0.897078 1.14038 0.859572 1.14706 0.959159 1.16559 0.890538 1.12834 0.947074 1.19675 1.10936 0.890852 1.11539 0.915676 0.890784 0.896899 1.12788 0.884264 1.10295 0.8971 1.15917 0.903218 1.12186 1.1407 0.921831 0.921731 1.11546 1.12794 0.902904 1.07212 0.884461 1.05952 0.909263 1.1471 0.934562 1.10939 0.89087 0.928153 0.915539 1.06544 0.940474 1.13453 1.12173 0.934189 1.097 0.915745 0.953007 1.09061 1.09083 1.03436 0.921653 0.909609 1.08422 0.971878 1.00948 1.02828 1.05335 0.940632 0.902945 0.978001 1.05931 0.947003 1.03446 0.990821 1.07823 0.87189 0.859433 1.00962 1.0845 1.08447 1.07834 1.01549 1.04689 0.896825 0.871628 1.07801 0.997065 1.01572 0.890439 1.09666 1.09051 0.884606 0.896751 0.865709 0.890835 1.01574 0.940441 1.13423 0.903024 1.10333 0.93423 1.09672 0.890862 1.02831 1.1095 0.909209 0.928144 1.0843 1.02827 0.915823 1.10293 1.10918 0.921643 1.10334 0.853031 1.07835 1.02168 0.947062 1.09039 0.865551 1.09705 1.09685 0.953158 0.997065 1.0656 0.878211 1.04709 0.940855 1.05944 1.06562 1.02811 1.07168 1.04075 0.890772 1.07209 1.04065 0.915604 1.05933 0.85919 1.0904 1.05914 1.06561 1.05957 0.915609 0.872054 1.15941 1.05292 1.05947 0.902978 1.12827 1.05937 0.884407 1.14046 0.940721 1.01577 0.915845 1.13448 0.928188 1.13459 1.04696 1.13444 0.921825 1.14683 0.896891 1.1345 1.05309 1.12791 1.11573 1.14063 1.00952 1.12186 0.940789 1.02187 1.15317 1.12198 1.02192 1.12166 1.10944 0.934245 1.12164 1.09693 1.02798 1.03454 0.921706 1.11551 1.04705 1.10933 1.11538 1.06564 0.928089 1.12185 1.03444 1.00937 0.903024 1.07821 1.09038 1.07209 1.09676 0.934468 1.04079 1.12193 1.08448 1.14045 1.10942 1.0967 1.10327 1.10305 0.909232 1.11545 1.08442 1.02788 1.10295 1.13428 0.909304 1.10919 1.09056 1.02192 1.12819 1.10302 0.927894 1.1219 1.12184 1.04059 1.0967 1.1093 0.915481 1.09062 1.12201 1.01556 1.11572 1.07188 0.921759 1.10295 1.02825 1.11579 1.09067 1.10301 1.08423 1.10915 0.934318 1.01569 1.10333 1.0906 1.08439 1.0907 1.07822 1.09666 1.09682 1.02824 1.08446 0.947092 1.07194 1.09061 1.03441 1.10332 1.10916 1.03431 1.11553 1.0783 1.11567 0.953183 1.10949 1.04688 1.09694 1.11587 1.11541 0.940412 1.06543 1.06555 1.05326 0.965453 1.05931 1.08452 1.0033 1.0407 1.0782 1.04683 1.09689 0.959135 1.06586 1.09681 1.04076 1.08457 1.0404 1.05942 1.06557 1.07176 1.02795 1.05325 1.05958 1.05954 1.07192 1.05956 0.978282 1.0533 1.04685 1.05328 1.04044 1.00962 1.06567 1.04055 1.05321 0.971765 1.05916 1.07828 1.04668 1.02198 0.928327 1.05917 1.05301 1.05302 1.06587 1.04688 0.965789 0.996746 1.05918 1.07823 1.03456 0.965721 1.05915 1.02171 1.09062 1.0842 1.02797 1.07179 1.0032 1.08443 0.946768 1.07797 1.02803 1.08428 1.00937 0.990496 0.940405 1.06553 1.01568 1.00326 0.959142 1.02837 1.05334 0.997105 1.08421 0.977954 1.03461 1.01546 1.0529 0.984465 1.02211 1.07835 1.06556 0.984156 1.0092 1.06565 1.06561 1.08416 1.02179 1.0346 0.978223 1.05296 1.04703 1.06564 1.06576 0.990709 1.04046 1.04073 1.07164 1.10294 1.08444 1.03413 1.04687 1.00336 1.09701 1.05321 1.1155 1.1031 1.11566 1.10916 1.10922 1.02196 1.02169 1.10947 1.07809 1.09685 1.1032 1.04039 1.09066 1.08433 1.02799 1.09073 1.09055 1.10958 1.04063 1.10306 1.04059 1.09704 1.09052 1.05337 1.0468 1.04067 1.02834 1.04708 1.06572 1.02834 1.06545 1.07169 1.09047 1.08449 1.0719 1.07797 1.07181 1.07815 1.0343 1.06539 1.11563 1.07796 1.09059 1.0905 1.10937 1.09663 1.1157 1.10318 1.10334 1.10934 1.10957 1.11575 1.09684 1.09709 1.10956 1.07211 1.10336 1.08417 1.11543 1.06539 1.10932 0.86566 1.09695 1.12179 1.05939 1.06568 1.10326 1.07185 1.10939 1.08418 0.809562 1.08447 1.10289 0.871926 1.07835 1.1154 1.07163 1.09671 1.09043 1.08425 1.06568 1.05326 1.09692 1.10941 0.846755 1.07194 1.05949 1.08446 1.06577 1.08435 1.07187 1.07808 1.04686 1.0968 1.06547 0.884549 1.09054 1.04087 1.09696 1.10933 1.05333 1.10302 1.04667 1.10943 0.884464 1.10313 1.02201 1.09044 1.07796 0.877927 1.08442 0.990428 1.04697 1.10326 1.09068 1.09674 1.09058 1.00323 0.99057 0.984301 0.984251 0.978254 1.00922 0.87833 0.972118 1.05933 1.04691 1.05933 1.05913 0.997049 1.04042 0.984416 0.853178 1.0406 1.01538 1.03461 0.990563 0.871893 0.996833 0.922028 0.965746 1.03458 0.94706 0.971828 1.04058 0.903007 0.965743 0.903058 0.984194 0.978015 0.990459 0.977943 1.02799 1.10307 1.01565 1.12188 0.965721 1.09702 1.11579 1.0095 1.1219 0.934162 1.11586 0.877936 1.00325 1.10916 0.984157 1.09674 1.09062 1.07792 0.884159 1.1029 1.02824 0.996785 1.08449 1.09669 1.10922 1.10915 1.02171 1.11553 0.896861 0.990592 1.10934 1.10328 1.10318 1.03449 1.10336 0.965494 0.865707 1.09076 0.909581 1.02809 1.09664 1.09695 0.940694 0.85916 1.00303 1.07821 0.927961 1.07791 1.06553 0.877997 1.01576 0.921941 1.05302 0.871718 0.978299 1.05915 0.896801 1.02163 0.847045 1.06562 0.927995 1.01566 0.890737 0.89064 1.02792 1.00924 0.897082 0.959596 1.01573 0.959558 0.971753 0.884524 0.946851 1.02803 1.00927 0.878337 0.965849 0.984554 0.884257 0.984405 0.972114 1.0221 1.09058 0.890599 0.965541 0.984352 0.890564 0.953102 1.03439 0.890835 0.959413 1.05936 0.947098 0.896688 1.08427 0.928339 0.896674 1.02791 0.890833 0.915722 1.01578 0.902882 0.934601 1.00304 0.915476 0.934459 1.02195 0.896779 0.953101 1.02211 0.909518 0.927918 0.884263 1.05921 0.915813 0.977896 0.903129 0.965765 0.996857 0.909332 0.95293 0.896841 0.971842 0.947096 0.909549 0.996989 0.909522 0.915583 1.00312 0.921933 0.990676 0.959526 0.92791 0.947123 0.927918 0.98432 0.915715 0.921631 0.965627 0.940527 0.9158 0.978246 0.928098 0.97183 0.890381 0.946667 0.984602 0.946916 0.909349 0.85299 0.978038 0.890504 0.90314 0.865815 0.934213 1.05932 0.915735 0.946886 0.871695 0.909434 1.04682 0.896831 0.953298 0.9281 1.04709 0.897001 0.978055 0.934564 1.04074 0.903197 0.853281 1.06581 1.01567 1.07164 0.909563 0.984276 1.00318 0.890423 1.05303 0.990598 0.990456 0.934183 1.03428 0.946634 0.92167 1.03432 0.872017 0.97175 0.928173 0.915407 1.03416 0.921715 0.972048 1.04682 0.94074 0.903252 1.02822 0.934301 0.934516 1.04075 1.08415 0.934477 1.07796 0.896891 0.940638 1.08439 0.940484 1.0969 1.07826 0.934524 1.09078 0.946712 0.971925 0.946754 0.928209 0.928219 1.05926 0.940574 0.959508 0.890859 0.946693 1.06567 0.978138 0.940794 1.05313 0.965446 1.02192 0.878104 0.953208 1.03416 1.04701 0.959242 1.07189 0.902914 1.04704 0.978213 1.05915 0.897106 1.00303 1.00934 1.04081 0.790665 0.996814 1.05306 1.01587 1.05915 0.828358 0.828321 1.00955 1.07197 0.772017 0.984294 0.86569 1.05914 1.00328 1.07185 0.840491 0.990477 1.07797 1.00953 0.834236 1.05956 0.82801 1.00943 1.00336 1.02173 0.809364 1.03452 0.996707 1.04038 1.0406 1.05324 1.01555 0.971947 1.04076 0.834484 1.03439 1.05336 1.03449 0.877958 1.04674 1.02818 1.02169 0.853002 1.02163 1.04698 0.847001 0.88417 1.01561 1.05332 1.04676 0.871746 1.04081 1.04077 0.890531 1.00932 1.03428 0.87163 0.903024 1.05317 1.02832 1.09065 0.865451 1.0971 0.877946 1.07837 1.07195 0.859459 0.777876 1.08418 0.896657 1.07182 1.08434 0.802945 0.89039 1.08423 1.09692 1.10294 0.902969 1.07812 1.08413 0.740463 1.07209 1.07189 0.996728 0.87835 1.06542 0.965671 0.821744 1.04062 0.940873 0.971928 1.06571 0.846993 0.965558 1.07795 0.959149 0.840744 1.07813 1.09705 0.853033 0.934613 1.06565 0.890624 1.07822 0.859213 1.0655 0.884237 1.0845 0.99057 0.953131 0.734589 1.00333 0.871798 1.02807 0.815746 0.953341 0.990819 0.978144 0.865786 1.00935 0.94665 1.02205 0.834414 0.965434 1.02209 0.865588 1.01559 0.88439 0.996858 0.872083 1.02212 0.915409 1.03454 0.903169 0.971647 0.909297 1.00303 0.984487 0.915591 0.984429 0.89698 0.840795 1.01585 0.884577 1.02826 0.928107 1.04062 1.00947 0.89671 0.921676 1.00932 0.878348 0.909618 1.02821 0.915642 0.884175 1.05961 0.91551 0.871783 1.04699 0.934333 0.87829 0.93432 1.06571 0.94681 1.04704 0.953137 1.05304 0.865789 0.909355 1.05946 0.922004 1.05325 0.940833 1.04054 0.896839 0.921734 0.909388 1.05916 0.890474 0.95298 0.884294 1.05337 0.909292 1.02208 0.902942 0.95945 1.01539 0.89085 0.959323 1.03456 0.871788 1.01574 0.971809 0.865565 0.878089 1.01581 0.953246 1.0344 0.871739 1.05309 0.965705 1.04085 0.984322 1.04682 0.990396 1.03444 0.977965 1.02827 0.959498 1.02807 1.12202 1.12816 0.971991 1.14687 1.13413 1.12799 1.14076 0.96539 1.14062 1.14673 1.14072 1.14069 0.984378 1.13449 1.14084 1.12164 1.13432 1.12811 1.12191 0.997106 1.12173 1.12796 1.13452 0.978287 1.14706 1.14691 1.12834 0.927951 1.147 1.13449 0.865828 1.1529 1.14699 1.15305 1.15931 0.853306 1.15319 1.15921 1.15296 0.940784 1.15947 1.1654 1.17184 0.93449 1.17212 1.16577 0.959501 1.17178 1.17803 0.946668 0.953341 1.15299 1.15953 0.91566 0.965554 1.16546 1.16547 1.15288 0.940849 0.952876 1.172 1.17184 0.909432 1.16544 1.17182 1.17811 0.946756 0.884552 1.17194 1.17178 1.11554 0.928339 1.12168 1.12806 1.1346 0.934133 1.14039 0.940687 1.14086 1.1471 0.921996 1.14061 0.934166 1.14695 1.15313 1.10952 0.953253 0.84039 1.12817 1.10303 1.11578 1.12195 1.1217 0.928238 1.13457 1.14056 0.853242 1.12801 1.13419 0.971648 1.15945 1.16578 0.778302 1.15293 1.15929 0.959476 0.878288 1.17164 1.17813 1.15321 0.978003 1.16553 0.809314 1.17797 1.14086 0.977988 1.13457 1.15942 1.14697 0.790415 1.16567 0.971808 1.14691 1.15952 1.15337 1.15914 0.990389 1.16543 1.1655 1.14691 1.15315 1.00329 1.1782 1.18428 1.17802 1.18416 1.17823 0.98433 1.19054 1.19085 1.1842 1.19044 0.990742 1.18454 1.19064 1.18454 1.17804 1.17196 1.17803 0.984513 1.18453 0.828054 1.18425 1.1906 1.1908 1.19697 0.984486 1.1779 1.19665 1.18428 1.19701 0.996994 1.18428 1.19676 1.19081 1.19047 1.1842 1.00916 1.18454 0.89081 1.18427 1.19041 1.1908 1.003 1.19085 1.19693 0.815491 1.19042 0.921689 1.19057 1.19692 1.19711 0.940453 1.19056 1.19687 1.19672 0.934443 1.19062 1.19697 1.19697 0.947033 1.17805 1.18436 1.18418 0.953268 1.19075 1.1779 1.19046 0.928079 1.18459 1.19069 1.18414 0.959402 1.1904 1.19664 1.09066 0.953267 1.19066 1.10303 1.1845 1.09074 1.1908 0.946809 1.17202 1.09668 1.16555 1.1843 1.19066 0.965609 1.09676 1.19687 1.08439 1.17817 1.19705 0.972003 1.18454 1.19671 1.08434 1.19673 1.19684 0.984279 1.19063 1.19686 1.19667 1.07163 1.19687 0.984536 1.19677 1.19062 1.19707 1.0717 1.19702 1.09039 1.19684 1.19705 0.959522 1.18438 1.05333 1.19674 1.19666 0.953261 1.19044 1.07197 1.19686 1.19696 1.09086 0.978291 1.19706 1.0783 1.19707 1.19667 0.965792 1.19686 1.07806 1.11561 0.95931 1.10942 1.10311 1.09055 1.08424 0.965838 1.10296 1.09707 1.07825 1.11584 1.12184 0.984324 1.13454 1.07807 1.10944 1.11574 1.12827 1.09055 1.06582 1.09663 0.990472 1.06546 1.09053 1.10952 1.09709 1.07199 1.12164 1.10309 0.990473 1.09054 1.0596 1.10295 1.12812 1.12832 0.996827 1.11569 1.0593 1.122 1.14067 0.996757 1.15323 1.06542 1.13456 1.12207 1.00957 1.13413 1.07199 1.14663 1.15938 1.00307 1.10961 1.05301 1.10957 1.09705 1.09693 1.04672 0.959523 1.12208 1.10304 1.12788 1.02816 0.977883 1.09671 1.14078 1.11573 1.11551 0.959536 1.10955 1.05298 1.10936 0.953209 1.05322 1.00312 1.05962 1.02207 1.07819 1.07207 0.984263 1.07174 1.03451 0.971696 1.05932 0.997017 0.965449 1.04084 1.00925 0.971824 1.07816 1.04038 0.996673 1.06542 0.98446 1.08448 1.08419 0.996765 0.996692 1.0843 0.98433 1.07175 1.07811 0.978147 1.04706 1.0031 1.03419 1.05306 1.04667 1.04673 0.990438 1.04664 1.01566 1.07164 1.03432 1.00958 1.03416 1.02163 1.0221 1.04067 1.05295 1.01574 1.0094 1.05962 0.971844 1.00324 1.03455 1.02194 1.06578 1.00917 1.05953 1.01555 1.02202 1.02833 1.00957 0.90927 1.02195 1.0467 1.07208 0.897015 1.01558 1.05953 1.0407 0.903178 1.03427 1.04078 1.09057 0.922072 1.07183 1.06581 1.09054 0.921935 0.971846 1.07809 1.05947 1.07796 0.915425 1.0844 1.10319 1.06585 1.09696 0.915645 1.08434 0.971956 0.884157 1.05308 1.09053 1.07817 0.877934 1.04684 1.07205 0.996965 1.07175 1.05315 0.890418 1.05919 1.00959 1.06559 1.05333 1.07166 0.909326 1.05942 1.0468 0.978124 0.884384 1.04677 1.04665 1.05914 1.14686 0.896685 1.15294 1.05305 1.0029 1.17163 0.940781 1.13444 1.03438 1.12183 1.14077 0.990755 0.959167 1.11549 1.19045 1.01551 1.15931 1.01573 0.927877 1.1719 1.02173 1.12837 1.00952 1.14058 0.934458 1.14064 1.0408 1.11546 1.12171 1.02831 1.10956 1.11545 1.00324 1.13445 0.959299 1.03433 1.01553 1.147 0.947101 1.14087 1.04071 1.16573 1.02184 0.902954 1.1219 1.02826 1.13459 0.890498 0.990794 1.14663 0.89682 1.02809 1.17185 1.19043 0.997 0.928351 1.18414 1.03448 1.022 1.15316 1.09676 0.921664 1.1968 1.02794 1.02171 0.940846 1.10337 1.19678 1.01541 1.07205 0.909518 1.19705 1.05934 1.01583 1.0405 1.04068 1.19692 1.05917 1.02801 1.12807 1.17791 1.04671 0.859255 1.03413 0.871633 1.1342 1.03452 1.04682 0.865861 1.09086 1.19708 1.10929 1.19675 1.00933 1.07195 1.19702 1.04053 1.09055 0.87789 1.10314 1.0907 1.01586 1.11543 1.04691 1.08455 1.12825 0.978354 1.05914 0.871712 1.01586 1.04059 1.09697 1.09702 1.09042 1.02798 0.990813 1.07797 1.07818 1.06576 0.996645 1.04061 1.0657 1.10322 1.04055 1.04672 1.04684 1.02789 1.03449 1.07167 1.0344 1.06582 0.884563 1.103 1.09693 1.04677 1.0033 0.890768 1.07817 1.0782 0.872122 1.05336 1.00923 1.12821 1.04076 1.10929 0.896836 1.19708 1.05327 0.859158 1.08445 1.02799 0.877918 1.0783 1.06587 1.08438 1.05302 1.06585 0.853133 1.10944 0.990431 1.0592 1.05943 1.09085 1.04046 1.03423 1.10302 1.04041 1.06544 1.1221 1.00924 1.0905 1.04701 1.05938 1.04086 0.846921 1.06563 1.00333 1.03424 1.04082 1.05327 1.00331 1.0531 0.978203 1.10301 1.02198 1.01566 1.05935 0.990809 0.990828 1.04664 1.04049 1.05918 0.98421 1.07822 0.978321 1.06566 1.07183 0.959315 1.07804 0.953113 1.07788 1.08456 0.990554 1.09069 0.996739 1.07837 1.00306 0.990607 0.990453 0.971664 0.990865 0.921932 0.965682 1.00312 0.940684 0.940405 0.997103 0.903046 1.00295 0.959615 0.934189 0.996646 0.897111 1.00954 0.959127 0.865607 1.00311 0.877929 0.99066 0.947117 1.01577 0.972014 0.934176 1.01584 0.990771 0.996889 1.00943 1.00925 1.02182 1.00292 0.959528 1.03455 1.00308 0.946719 1.00922 1.01574 1.0221 0.978049 0.896655 1.02795 1.0094 0.921693 0.996962 0.877998 1.05305 0.871671 0.99074 0.928048 0.890399 0.88454 1.02793 0.984167 0.928323 0.9344 1.05917 0.884484 0.971935 0.878041 1.03416 0.834403 0.96582 1.04067 0.946968 0.859344 0.940492 1.04071 0.940479 1.04695 0.952974 0.959477 0.822024 1.06555 0.959215 1.00919 0.984541 0.915704 1.01569 0.965439 0.97164 1.02201 0.921916 0.90299 0.922036 1.01564 0.909276 1.02805 0.884461 0.934231 1.02809 0.915523 1.02788 0.909521 0.921694 0.865529 0.896651 1.0157 0.871717 0.953245 1.03437 0.871642 0.853124 0.959593 1.04058 0.952994 1.0467 0.840737 0.965434 0.859186 1.04696 0.903124 1.05325 0.846627 1.03441 0.952979 0.928101 1.05943 1.05301 0.878024 1.05954 1.05327 0.909569 1.04687 1.04044 1.04676 1.05929 0.953275 1.07181 0.934383 1.05291 1.06573 0.915601 0.965511 0.865536 1.04671 0.940692 0.871952 1.05337 1.07202 0.871727 0.978118 1.07828 0.853244 1.07212 0.984175 0.902965 1.08415 1.05913 0.915613 0.884361 1.07173 1.07836 1.08439 0.859582 1.07788 0.865533 1.08433 0.865685 1.0844 0.890817 1.0906 1.08432 0.871678 1.09056 0.928132 1.0906 0.871629 1.09702 1.09052 1.09049 0.909599 1.09703 1.10327 0.972051 1.09671 1.10332 1.07195 0.953117 1.06558 1.06574 1.08454 0.934574 1.07817 1.09084 1.07188 1.07804 0.959151 0.921928 1.08434 0.953245 1.09668 0.903261 1.09083 0.903081 1.09051 0.890467 1.09672 0.946741 1.10927 0.88445 1.10332 1.10936 0.884598 1.11577 0.897063 0.86572 1.10951 0.940741 0.90953 1.10302 0.865687 1.10324 0.909369 1.09668 0.878286 1.1092 0.903223 1.12168