# vtk DataFile Version 3.0
vtk output
ASCII
DATASET UNSTRUCTURED_GRID
POINTS 44484 float
0 0 0
0.015295 0 0
0.0102692 0.0114559 0
0 0.009712 0
0 0 0
0.0113716 0.0130272 0
0.0102692 0.0114559 0
0.015295 0 0
0.0225487 0 0
0.0242369 0.0126392 0
0.0113716 0.0130272 0
0.580357 0.510675 0
0.589399 0.509812 0
0.593527 0.514502 0
0.587471 0.524902 0
0.580704 0.524461 0
0.578077 0.521657 0
0.580357 0.510675 0
0.0225487 0 0
0.0366987 0 0
0.0367992 0.00149428 0
0.0290299 0.0140833 0
0.0256178 0.0139377 0
0.0242369 0.0126392 0
0.0225487 0 0
0.0075595 0.0233789 0
0.0108783 0.0206567 0
0.0214947 0.0257119 0
0.0221715 0.0273323 0
0.0186276 0.0340264 0
0.0109415 0.0351029 0
0.0075595 0.0233789 0
0.568199 0.521669 0
0.578077 0.521657 0
0.580704 0.524461 0
0.577006 0.535886 0
0.571862 0.536657 0
0.565461 0.52958 0
0.568199 0.521669 0
0 0.009712 0
0.0102692 0.0114559 0
0.0113716 0.0130272 0
0.0108783 0.0206567 0
0.0075595 0.0233789 0
0 0.0232994 0
0 0.009712 0
0.575824 0 0
0.582064 0 0
0.586022 0.0112792 0
0.58516 0.0131811 0
0.578221 0.015957 0
0.571687 0.0112534 0
0.575824 0 0
0.587471 0.524902 0
0.593527 0.514502 0
0.599995 0.514864 0
0.602971 0.528668 0
0.591763 0.530095 0
0.587471 0.524902 0
0.0326598 0.566934 0
0.0366187 0.572276 0
0.0348421 0.582369 0
0.03263 0.583237 0
0.0234795 0.579874 0
0.0218187 0.575893 0
0.0326598 0.566934 0
0.582064 0 0
0.598553 0 0
0.598913 0.00753194 0
0.598582 0.00797816 0
0.586022 0.0112792 0
0.582064 0 0
0.580704 0.524461 0
0.587471 0.524902 0
0.591763 0.530095 0
0.589622 0.538529 0
0.582814 0.540599 0
0.577006 0.535886 0
0.580704 0.524461 0
0 0.0232994 0
0.0075595 0.0233789 0
0.0109415 0.0351029 0
0.0082379 0.0377508 0
0 0.0380954 0
0 0.0232994 0
0 0.575045 0
0.010145 0.578304 0
0.01212 0.588563 0
0.0112938 0.58919 0
0 0.588866 0
0 0.575045 0
0.556089 0.029452 0
0.558292 0.0235391 0
0.563176 0.0218987 0
0.570206 0.0262958 0
0.56932 0.0352623 0
0.566638 0.0372879 0
0.559507 0.0360552 0
0.556089 0.029452 0
0.0108783 0.0206567 0
0.0113716 0.0130272 0
0.0242369 0.0126392 0
0.0256178 0.0139377 0
0.0214947 0.0257119 0
0.0108783 0.0206567 0
0.589399 0.509812 0
0.592081 0.500865 0
0.59876 0.499544 0
0.603548 0.503462 0
0.603056 0.512543 0
0.599995 0.514864 0
0.593527 0.514502 0
0.589399 0.509812 0
0.570206 0.0262958 0
0.576564 0.0235374 0
0.584587 0.029616 0
0.581903 0.0385282 0
0.56932 0.0352623 0
0.570206 0.0262958 0
0 0.588866 0
0.0112938 0.58919 0
0.00839031 0.603004 0
0 0.602794 0
0 0.588866 0
0.0214947 0.0257119 0
0.0256178 0.0139377 0
0.0290299 0.0140833 0
0.0351203 0.0190995 0
0.0320907 0.0289945 0
0.0221715 0.0273323 0
0.0214947 0.0257119 0
0.563176 0.0218987 0
0.566223 0.0121403 0
0.571687 0.0112534 0
0.578221 0.015957 0
0.576564 0.0235374 0
0.570206 0.0262958 0
0.563176 0.0218987 0
0.01669 0.588674 0
0.0234795 0.579874 0
0.03263 0.583237 0
0.0295005 0.594267 0
0.0203332 0.592415 0
0.01669 0.588674 0
0.0290299 0.0140833 0
0.0367992 0.00149428 0
0.0433422 0.0120973 0
0.039594 0.0179814 0
0.0351203 0.0190995 0
0.0290299 0.0140833 0
0.603548 0.503462 0
0.612427 0.500461 0
0.618221 0.505759 0
0.615894 0.514951 0
0.614393 0.515686 0
0.603056 0.512543 0
0.603548 0.503462 0
0.578221 0.015957 0
0.58516 0.0131811 0
0.592033 0.0245532 0
0.591287 0.026401 0
0.584587 0.029616 0
0.576564 0.0235374 0
0.578221 0.015957 0
0.0367992 0.00149428 0
0.0366987 0 0
0.0505256 0 0
0.0517867 0.011379 0
0.0433422 0.0120973 0
0.0367992 0.00149428 0
0.0474642 0.561818 0
0.0473058 0.570817 0
0.0366187 0.572276 0
0.0326598 0.566934 0
0.0325551 0.566159 0
0.0397912 0.558262 0
0.0474642 0.561818 0
0.0517867 0.011379 0
0.0505256 0 0
0.06686 0 0
0.0614385 0.0100599 0
0.0518528 0.0114274 0
0.0517867 0.011379 0
0.598582 0.00797816 0
0.598913 0.00753194 0
0.611188 0.00999173 0
0.613079 0.0147747 0
0.604692 0.0231392 0
0.599072 0.0209668 0
0.598582 0.00797816 0
0.615894 0.514951 0
0.618221 0.505759 0
0.625658 0.503537 0
0.630941 0.507462 0
0.629967 0.516814 0
0.624839 0.519003 0
0.615894 0.514951 0
0.586022 0.0112792 0
0.598582 0.00797816 0
0.599072 0.0209668 0
0.592033 0.0245532 0
0.58516 0.0131811 0
0.586022 0.0112792 0
0.039594 0.0179814 0
0.0433422 0.0120973 0
0.0517867 0.011379 0
0.0518528 0.0114274 0
0.0533725 0.0217834 0
0.0488673 0.0264354 0
0.0478923 0.0266493 0
0.039594 0.0179814 0
0.0348421 0.582369 0
0.0366187 0.572276 0
0.0473058 0.570817 0
0.0500809 0.573631 0
0.0501918 0.577995 0
0.0393416 0.584665 0
0.0348421 0.582369 0
0.611188 0.00999173 0
0.616283 0 0
0.619255 0 0
0.625029 0.0146941 0
0.618749 0.0176172 0
0.613079 0.0147747 0
0.611188 0.00999173 0
0.599995 0.514864 0
0.603056 0.512543 0
0.614393 0.515686 0
0.610831 0.528116 0
0.604193 0.52944 0
0.602971 0.528668 0
0.599995 0.514864 0
0.0474642 0.561818 0
0.0555096 0.557634 0
0.0566602 0.55792 0
0.0619101 0.569114 0
0.0500809 0.573631 0
0.0473058 0.570817 0
0.0474642 0.561818 0
0.598913 0.00753194 0
0.598553 0 0
0.616283 0 0
0.611188 0.00999173 0
0.598913 0.00753194 0
0.0322574 0.0292484 0
0.0320907 0.0289945 0
0.0351203 0.0190995 0
0.039594 0.0179814 0
0.0478923 0.0266493 0
0.0431581 0.0321453 0
0.0322574 0.0292484 0
0.0500809 0.573631 0
0.0619101 0.569114 0
0.0633587 0.569796 0
0.0648842 0.57597 0
0.0571067 0.586842 0
0.0501918 0.577995 0
0.0500809 0.573631 0
0.59757 0.035303 0
0.591287 0.026401 0
0.592033 0.0245532 0
0.599072 0.0209668 0
0.604692 0.0231392 0
0.607895 0.030322 0
0.606565 0.0331967 0
0.59757 0.035303 0
0.614393 0.515686 0
0.615894 0.514951 0
0.624839 0.519003 0
0.62335 0.530298 0
0.616996 0.532204 0
0.610831 0.528116 0
0.614393 0.515686 0
0.0518528 0.0114274 0
0.0614385 0.0100599 0
0.0672733 0.018012 0
0.0621861 0.0229372 0
0.0533725 0.0217834 0
0.0518528 0.0114274 0
0.604692 0.0231392 0
0.613079 0.0147747 0
0.618749 0.0176172 0
0.618858 0.0281609 0
0.607895 0.030322 0
0.604692 0.0231392 0
0.0313222 0.597192 0
0.0295005 0.594267 0
0.03263 0.583237 0
0.0348421 0.582369 0
0.0393416 0.584665 0
0.0434608 0.592633 0
0.0433229 0.592943 0
0.0364366 0.597907 0
0.0313222 0.597192 0
0.577006 0.535886 0
0.582814 0.540599 0
0.580918 0.549442 0
0.576297 0.551643 0
0.566989 0.546521 0
0.566868 0.546105 0
0.571862 0.536657 0
0.577006 0.535886 0
0.0488673 0.0264354 0
0.0533725 0.0217834 0
0.0621861 0.0229372 0
0.0640047 0.0325753 0
0.0577248 0.0363915 0
0.0488673 0.0264354 0
0.568354 0.0478522 0
0.566638 0.0372879 0
0.56932 0.0352623 0
0.581903 0.0385282 0
0.581942 0.0386199 0
0.577751 0.0506259 0
0.568354 0.0478522 0
0.582814 0.540599 0
0.589622 0.538529 0
0.596006 0.543547 0
0.594121 0.552623 0
0.589472 0.554497 0
0.580918 0.549442 0
0.582814 0.540599 0
0.0393416 0.584665 0
0.0501918 0.577995 0
0.0571067 0.586842 0
0.0571805 0.587873 0
0.0562575 0.589004 0
0.0434608 0.592633 0
0.0393416 0.584665 0
0 0.0380954 0
0.0082379 0.0377508 0
0.0122297 0.047335 0
0.00961128 0.0510498 0
0 0.0509424 0
0 0.0380954 0
0.581903 0.0385282 0
0.584587 0.029616 0
0.591287 0.026401 0
0.59757 0.035303 0
0.594289 0.0427385 0
0.581942 0.0386199 0
0.581903 0.0385282 0
0 0.602794 0
0.00839031 0.603004 0
0.00975793 0.604131 0
0.00782954 0.618342 0
0 0.618903 0
0 0.602794 0
0.0186276 0.0340264 0
0.0228941 0.0407659 0
0.0194676 0.0465455 0
0.0122297 0.047335 0
0.0082379 0.0377508 0
0.0109415 0.0351029 0
0.0186276 0.0340264 0
0.566989 0.546521 0
0.576297 0.551643 0
0.5745 0.56076 0
0.569398 0.56323 0
0.560722 0.558683 0
0.560385 0.557569 0
0.566989 0.546521 0
0.01212 0.588563 0
0.01669 0.588674 0
0.0203332 0.592415 0
0.0166747 0.605094 0
0.00975793 0.604131 0
0.00839031 0.603004 0
0.0112938 0.58919 0
0.01212 0.588563 0
0.587208 0.563855 0
0.589472 0.554497 0
0.594121 0.552623 0
0.601396 0.556963 0
0.600818 0.566418 0
0.595676 0.569008 0
0.587208 0.563855 0
0.565286 0.0618801 0
0.562507 0.0585799 0
0.562742 0.0520366 0
0.568354 0.0478522 0
0.577751 0.0506259 0
0.57801 0.0511476 0
0.576687 0.0592272 0
0.565286 0.0618801 0
0.0194676 0.0465455 0
0.0228941 0.0407659 0
0.0304097 0.0402748 0
0.0323114 0.0419145 0
0.0292223 0.0550544 0
0.0241463 0.0555577 0
0.0194676 0.0465455 0
0.581942 0.0386199 0
0.594289 0.0427385 0
0.594652 0.0437902 0
0.591136 0.0528615 0
0.57801 0.0511476 0
0.577751 0.0506259 0
0.581942 0.0386199 0
0.576297 0.551643 0
0.580918 0.549442 0
0.589472 0.554497 0
0.587208 0.563855 0
0.582697 0.565749 0
0.5745 0.56076 0
0.576297 0.551643 0
0.0203332 0.592415 0
0.0295005 0.594267 0
0.0313222 0.597192 0
0.0262346 0.605835 0
0.0189857 0.606738 0
0.0166747 0.605094 0
0.0203332 0.592415 0
0.0221715 0.0273323 0
0.0320907 0.0289945 0
0.0322574 0.0292484 0
0.0304097 0.0402748 0
0.0228941 0.0407659 0
0.0186276 0.0340264 0
0.0221715 0.0273323 0
0.591763 0.530095 0
0.602971 0.528668 0
0.604193 0.52944 0
0.603608 0.541198 0
0.596006 0.543547 0
0.589622 0.538529 0
0.591763 0.530095 0
0.00961128 0.0510498 0
0.0122297 0.047335 0
0.0194676 0.0465455 0
0.0241463 0.0555577 0
0.0208551 0.0598142 0
0.0124656 0.0586578 0
0.00961128 0.0510498 0
0.57801 0.0511476 0
0.591136 0.0528615 0
0.593329 0.0584373 0
0.590601 0.0630483 0
0.579939 0.063625 0
0.576687 0.0592272 0
0.57801 0.0511476 0
0 0.0509424 0
0.00961128 0.0510498 0
0.0124656 0.0586578 0
0.00808739 0.0639008 0
0 0.0633309 0
0 0.0509424 0
0.615309 0.542012 0
0.616996 0.532204 0
0.62335 0.530298 0
0.629226 0.533608 0
0.627698 0.544477 0
0.621869 0.546564 0
0.615309 0.542012 0
0 0.618903 0
0.00782954 0.618342 0
0.00950823 0.619429 0
0.00993415 0.631427 0
0.00832378 0.632863 0
0 0.632768 0
0 0.618903 0
0.0208551 0.0598142 0
0.0241463 0.0555577 0
0.0292223 0.0550544 0
0.035033 0.05821 0
0.035909 0.0633687 0
0.030954 0.0680379 0
0.0219938 0.0642294 0
0.0208551 0.0598142 0
0.604193 0.52944 0
0.610831 0.528116 0
0.616996 0.532204 0
0.615309 0.542012 0
0.608382 0.544296 0
0.603608 0.541198 0
0.604193 0.52944 0
0.594652 0.0437902 0
0.594289 0.0427385 0
0.59757 0.035303 0
0.606565 0.0331967 0
0.610441 0.0413763 0
0.608313 0.0475403 0
0.607081 0.048052 0
0.594652 0.0437902 0
0.00950823 0.619429 0
0.0187249 0.618208 0
0.0211324 0.620036 0
0.0211529 0.630614 0
0.00993415 0.631427 0
0.00950823 0.619429 0
0.596006 0.543547 0
0.603608 0.541198 0
[...]
CELL_DATA 6400
FIELD FieldData 3
weight 1 6400 float
 0.0524536 0.0525426 0.0544556 0.0526105 0.0525826 0.0544133 0.052475 0.0545214 0.0544146 0.0522433 0.0544827 0.054378 0.0525277 0.052025 0.0546332 0.0525853 0.0544761 0.0546281 0.0519535 0.0526607 0.0545838 0.0521421 0.0526897 0.0544508 0.0545723 0.0527383 0.0523766 0.0528267 0.0545135 0.0544009 0.0545301 0.0527927 0.052335 0.0544563 0.0544013 0.0524687 0.0544512 0.052761 0.0524469 0.0545615 0.0543607 0.0528789 0.0545247 0.0521951 0.054326 0.0529088 0.0546744 0.054295 0.0523279 0.0525758 0.0546096 0.0518588 0.0526337 0.0542726 0.0520236 0.054207 0.0547207 0.0527481 0.054666 0.0542439 0.0520707 0.052683 0.0543426 0.052686 0.0547048 0.0526209 0.0542735 0.0517722 0.052796 0.0543095 0.0546084 0.0518543 0.0542592 0.0528831 0.0519197 0.0545996 0.0527722 0.0541764 0.051999 0.0545621 0.0542276 0.0529918 0.0546629 0.0519362 0.0528705 0.0541908 0.0546605 0.0521162 0.0529602 0.0522113 0.0542306 0.05464 0.052816 0.0523751 0.0541165 0.0528998 0.0522918 0.0548005 0.054145 0.0529794 0.0548456 0.0521234 0.0541916 0.053016 0.0520695 0.0548017 0.0542034 0.0529121 0.0541571 0.0522225 0.052974 0.0548934 0.0530429 0.0542132 0.0525743 0.0529968 0.0541207 0.0548538 0.0526559 0.0529783 0.0541014 0.0548878 0.052753 0.0540597 0.0531705 0.054814 0.053084 0.0539969 0.0548442 0.0532161 0.0524851 0.0540199 0.0548155 0.0531556 0.0525281 0.0540729 0.053129 0.0547798 0.0526525 0.0540617 0.0532239 0.0548886 0.0528049 0.054888 0.0533336 0.0539368 0.0548541 0.052838 0.0532648 0.0548361 0.0539769 0.0529701 0.0533731 0.0549391 0.0539111 0.0532979 0.0549288 0.0529239 0.054029 0.0530623 0.0540022 0.0527205 0.0531348 0.0539343 0.0527139 0.0549806 0.0531205 0.0539117 0.0549631 0.0532337 0.0528377 0.0541892 0.053081 0.0549742 0.0523925 0.0541546 0.0531055 0.0549261 0.0524649 0.0541215 0.0549242 0.053229 0.0525918 0.0540938 0.0548979 0.053272 0.0525289 0.0540593 0.0549557 0.0533592 0.0541122 0.0522635 0.0549705 0.0533267 0.0540885 0.0523356 0.0549387 0.052364 0.0533419 0.0541395 0.0547609 0.0524688 0.0548095 0.0540256 0.053429 0.0547513 0.0526242 0.0540262 0.0527172 0.0548454 0.05403 0.0527076 0.0526537 0.0548291 0.053971 0.0548088 0.0527418 0.0527387 0.053943 0.054707 0.0528038 0.0525639 0.0539932 0.0527688 0.0546994 0.0525657 0.0538746 0.0547578 0.0526894 0.0547867 0.0539029 0.0528931 0.0526673 0.0547462 0.0528833 0.0538416 0.054739 0.0528278 0.0539738 0.0533301 0.0548993 0.052956 0.0539447 0.0548701 0.052885 0.0539613 0.0534092 0.0549363 0.0530818 0.0538785 0.0532007 0.0549115 0.0530214 0.0548383 0.0537963 0.0532935 0.0548414 0.0537777 0.0530048 0.0538636 0.0547978 0.05338 0.053145 0.0543629 0.054813 0.0532952 0.0530549 0.0548793 0.053115 0.0534706 0.054399 0.0548783 0.0528101 0.0534563 0.0527319 0.0543232 0.054851 0.0536368 0.0544291 0.0528948 0.0542804 0.0544546 0.0528486 0.0543201 0.0535657 0.0543799 0.0527662 0.0543435 0.0534548 0.0543526 0.0529803 0.0544943 0.0529042 0.0535417 0.0543044 0.0544788 0.0529672 0.0535466 0.0544107 0.0542526 0.0530221 0.0544349 0.0542725 0.053191 0.0542996 0.0531618 0.0532826 0.0543095 0.0541755 0.0530858 0.0542718 0.0542282 0.0530661 0.0543833 0.0542371 0.0530507 0.0543536 0.0531763 0.0541954 0.0531067 0.0543506 0.0533759 0.054237 0.0531719 0.0545803 0.0541407 0.0533461 0.053181 0.0545284 0.0532724 0.0534578 0.0541864 0.054538 0.0532743 0.0532233 0.0541089 0.0544824 0.0532535 0.0532561 0.0541899 0.0546216 0.0541513 0.0533753 0.0533093 0.0545801 0.0541399 0.0537198 0.0533818 0.0540587 0.0545623 0.0534292 0.0537957 0.0540044 0.0544273 0.0540476 0.0536196 0.0544543 0.0534901 0.0541031 0.0537108 0.0543749 0.0534133 0.0542031 0.0545101 0.0537164 0.0533465 0.054472 0.0541623 0.0535157 0.0542179 0.0538839 0.0541283 0.0541523 0.0534473 0.0540902 0.0542234 0.0532087 0.0541773 0.05329 0.0540857 0.0539656 0.0543093 0.053381 0.0542839 0.053801 0.0542423 0.0532758 0.0540489 0.0541028 0.0538156 0.054093 0.0541273 0.0532422 0.0538897 0.0540457 0.0533481 0.0540104 0.0539882 0.0535359 0.0534192 0.0540769 0.0539931 0.0536171 0.0534226 0.0541717 0.0536274 0.0538982 0.0534711 0.0541419 0.0534296 0.0540413 0.0535583 0.0540713 0.0535635 0.0540896 0.0543278 0.0535433 0.0535009 0.0540084 0.0542559 0.0537466 0.0539955 0.0543468 0.0535856 0.0537385 0.0539428 0.0543959 0.0535272 0.053661 0.05395 0.0544482 0.0539114 0.0536094 0.0538166 0.0543912 0.0539302 0.0533667 0.0543359 0.0533083 0.0535901 0.0538307 0.053425 0.054295 0.0536777 0.0534543 0.0539235 0.0542158 0.0538732 0.0533995 0.0537469 0.0541882 0.0535597 0.0538428 0.0530591 0.0541117 0.0534796 0.0537579 0.0531378 0.0535128 0.0542622 0.0535229 0.0531613 0.0540833 0.0536059 0.0542322 0.0530451 0.0539957 0.0535995 0.0539662 0.0529455 0.0536118 0.0546769 0.0540524 0.0530568 0.0536687 0.0546416 0.0532254 0.0539276 0.0546988 0.0536859 0.0538981 0.0533329 0.0546541 0.0534633 0.0539342 0.0531343 0.0545447 0.0534578 0.0540182 0.0546098 0.0532757 0.0535595 0.0539591 0.0545131 0.0536324 0.0531779 0.0539118 0.0545903 0.0535727 0.0538747 0.0528468 0.054641 0.0535336 0.0538546 0.0545888 0.0529387 0.0538538 0.0535058 0.0545535 0.0527654 0.0536364 0.0538629 0.0547616 0.0538353 0.0527981 0.0536403 0.0547207 0.0538101 0.052875 0.053707 0.0547532 0.0537626 0.0528603 0.0537235 0.0530438 0.0548078 0.0537102 0.0537397 0.0529628 0.0537798 0.0547937 0.0537909 0.0531949 0.0537618 0.0546955 0.0537991 0.0531116 0.053713 0.0546971 0.0536655 0.0531122 0.0536922 0.0546278 0.0537439 0.0530031 0.0546618 0.0538105 0.0536267 0.053746 0.0547407 0.0529179 0.0538466 0.0538231 0.0547269 0.0530158 0.0538208 0.0537567 0.0546641 0.053827 0.0534715 0.0538089 0.0537446 0.0538937 0.0544262 0.0533904 0.0537416 0.05389 0.054484 0.053741 0.0534889 0.0539584 0.0544582 0.0537926 0.0533086 0.0538694 0.0543796 0.0533989 0.0545241 0.0539308 0.053708 0.0533129 0.0544875 0.0539541 0.0536574 0.053422 0.0543054 0.0540327 0.0536566 0.0535926 0.0542726 0.054012 0.0535693 0.0536652 0.0543372 0.0536636 0.054078 0.053479 0.0543772 0.053854 0.0537605 0.0544123 0.053813 0.0536599 0.0534994 0.0539097 0.0535611 0.0535845 0.0542966 0.0539494 0.0531991 0.0536667 0.054596 0.0538835 0.0533061 0.054557 0.0535667 0.0539928 0.0545298 0.0535797 0.053102 0.0539586 0.0535718 0.0540763 0.0546337 0.0531266 0.0534833 0.0544978 0.0532008 0.0540016 0.0545633 0.0535714 0.0545374 0.054128 0.0534885 0.0531967 0.0544539 0.0540536 0.0533992 0.0533896 0.054351 0.0541424 0.0534052 0.0534859 0.0544205 0.0535602 0.0544675 0.0535165 0.0536551 0.0538723 0.0543945 0.0532989 0.053651 0.0538219 0.0535776 0.0550058 0.0536985 0.0532937 0.0536837 0.0549956 0.053736 0.053782 0.053381 0.0537296 0.0517914 0.0550305 0.0537734 0.0538285 0.0516831 0.0550517 0.0537053 0.0518415 0.0538719 0.0550448 0.0516126 0.0538716 0.0538072 0.0550261 0.051701 0.0538809 0.0538434 0.0549824 0.051808 0.0539098 0.0550164 0.0538163 0.0519443 0.0536334 0.0549966 0.0537513 0.0519657 0.0550276 0.0537162 0.0536779 0.0550298 0.0537596 0.0520904 0.0537756 0.0550043 0.0521128 0.0536779 0.0537318 0.0550779 0.0518737 0.0550762 0.0538021 0.0536051 0.0537778 0.0536105 0.0519515 0.0551195 0.05391 0.0536227 0.0514906 0.0551038 0.0538298 0.0515551 0.0550993 0.0516664 0.0540049 0.0535148 0.0550546 0.051737 0.0539664 0.0550594 0.053537 0.0514729 0.0551091 0.0514026 0.0539326 0.0550812 0.0535254 0.0516128 0.0550683 0.0535771 0.0538802 0.0518431 0.0550902 0.0536588 0.0539729 0.0517593 0.0535677 0.0549695 0.051826 0.0539482 0.0534813 0.0549423 0.0540066 0.0519381 0.053502 0.0549754 0.0540354 0.0517046 0.0550114 0.0534467 0.053992 0.0516913 0.0549857 0.0540923 0.0537799 0.0518411 0.0540638 0.0549143 0.053744 0.0541021 0.0549184 0.0536892 0.0521842 0.0536485 0.0541519 0.0522574 0.0548848 0.0537285 0.054946 0.0520904 0.0541829 0.054949 0.0538018 0.0521015 0.0541518 0.054914 0.0522236 0.0550409 0.0542511 0.0537035 0.055041 0.0524304 0.0542143 0.0536884 0.0550154 0.0523683 0.0550171 0.0536075 0.0542857 0.052456 0.0550678 0.0540361 0.0536207 0.055044 0.0525697 0.0535855 0.0549731 0.054085 0.0536473 0.0549939 0.0541041 0.0522774 0.0535526 0.0541174 0.0549365 0.0535345 0.0524204 0.055002 0.0540509 0.0534557 0.052421 0.0549606 0.0541946 0.0534598 0.0520223 0.0541663 0.0535904 0.0551341 0.052153 0.0541714 0.0535309 0.0551281 0.0521499 0.0551501 0.0542423 0.0519495 0.0535313 0.0551444 0.0520371 0.0533894 0.0542396 0.0551133 0.0534898 0.0551141 0.0520562 0.0543065 0.0550926 0.0533546 0.052303 0.0551319 0.0542556 0.0534289 0.0522916 0.0551308 0.0534439 0.0551116 0.0543231 0.0523369 0.053433 0.0551608 0.0527977 0.0521641 0.0551664 0.0533548 0.0528219 0.0551568 0.0520884 0.0551569 0.0529015 0.0534331 0.0522158 0.051409 0.0529899 0.0533467 0.0551702 0.0513211 0.0528259 0.0532567 0.0515503 0.052892 0.0551725 0.0532441 0.0515032 0.053001 0.0533278 0.0513334 0.0529837 0.0551599 0.0533909 0.0512468 0.0551469 0.0529159 0.0533751 0.0551428 0.0513901 0.0530908 0.0551257 0.0532871 0.0515615 0.0532896 0.0551504 0.0531932 0.0516902 0.0532253 0.0551364 0.0531422 0.0516864 0.0532009 0.0550935 0.053079 0.0515141 0.0550697 0.053161 0.0531864 0.0550907 0.0515279 0.0532159 0.0550597 0.0530767 0.0516159 0.0529358 0.0550336 0.0511728 0.0531626 0.0550278 0.0528352 0.0549929 0.0531441 0.0511213 0.0529565 0.0549949 0.0512325 0.0529714 0.0530322 0.0550525 0.0512373 0.0528657 0.0530658 0.0550174 0.0510303 0.0529897 0.0551078 0.0529562 0.053054 0.0511389 0.0550953 0.0531628 0.053136 0.0550823 0.0511038 0.053098 0.0551182 0.0532413 0.0513679 0.0530513 0.053239 0.0514057 0.0530388 0.055127 0.053121 0.0514145 0.0550801 0.0529535 0.0531353 0.0515155 0.055107 0.0532043 0.0529421 0.051246 0.0550667 0.0533072 0.0530024 0.0550012 0.0512695 0.0532757 0.0550354 0.0533704 0.0513822 0.0550515 0.0533326 0.053349 0.0518446 0.0550156 0.0532556 0.0533944 0.0519497 0.0532631 0.0534803 0.0520065 0.0550284 0.0531862 0.0533714 0.0517577 0.0531399 0.0548433 0.0533007 0.0517195 0.0532883 0.0534507 0.054875 0.0518541 0.0532207 0.0548311 0.0535363 0.0517605 0.0533271 0.0549011 0.0520892 0.0532556 0.0548603 0.0536655 0.0548146 0.0531711 0.0521475 0.0536029 0.0547841 0.0531551 0.0520281 0.0536163 0.0547556 0.0530973 0.0535293 0.0519496 0.0530927 0.0546931 0.0536799 0.0520004 0.0530441 0.0547786 0.0533387 0.0516641 0.0547292 0.0529954 0.0549209 0.0534109 0.0548787 0.0518185 0.0535075 0.0529553 0.0516395 0.0549488 0.0534893 0.0529058 0.0549014 0.0534351 0.0515142 0.0547999 0.0529952 0.0533661 0.0548324 0.0530752 0.0515323 0.0535082 0.0548554 0.0530154 0.0516212 0.0536482 0.0547462 0.0548214 0.0517196 0.0528928 0.05359 0.0548721 0.051775 0.0529149 0.0536858 0.0547798 0.0519206 0.0535649 0.0547661 0.0536748 0.0519195 0.0536892 0.054601 0.0536662 0.05169 0.0546639 0.0537357 0.0535718 0.052895 0.0545643 0.0517734 0.0535241 0.0529022 0.0546952 0.0535829 0.0530783 0.0525713 0.0545869 0.0529994 0.0546168 0.0534718 0.0526735 0.0529467 0.0544946 0.053648 0.0529012 0.052674 0.0535732 0.0530204 0.054423 0.052784 0.0531593 0.053535 0.0544451 0.0525804 0.0534988 0.0532365 0.0545114 0.0525765 0.0534853 0.0532504 0.0527234 0.0544657 0.0533954 0.0530949 0.0547077 0.0528441 0.0546549 0.0531028 0.0534346 0.0529242 0.0546054 0.0533682 0.05327 0.0526613 0.0547279 0.0531844 0.0533354 0.0527749 0.0546824 0.0529054 0.0532647 0.052766 0.0546664 0.0529831 0.0534029 0.0545284 0.0528637 0.0530506 0.053392 0.0545351 0.0524179 0.0533064 0.052976 0.0532967 0.0524709 0.0544584 0.0529131 0.0532879 0.052483 0.0546106 0.053202 0.0530505 0.054628 0.0532005 0.0523488 0.0532098 0.0545646 0.0531251 0.05232 0.0534784 0.0544877 0.0533047 0.0524653 0.0549357 0.0534825 0.0525732 0.0531539 0.0549614 0.0533941 0.0526355 0.0532212 0.0548818 0.052748 0.0534463 0.0532742 0.0549183 0.0525205 0.053382 0.0534256 0.0549787 0.0526329 0.0532865 0.0533574 0.0549549 0.0533181 0.0529547 0.0533371 0.0530461 0.0534107 0.0534781 0.0533601 0.0530286 0.0533047 0.0535281 0.0531078 0.0534007 0.052947 0.0534424 0.0532992 0.0528567 0.0535637 0.0531985 0.0530058 0.053651 0.0532152 0.0535988 0.0531759 0.0533211 0.0537345 0.0532372 0.0536202 0.053232 0.0532561 0.0537043 0.0532193 0.0530829 0.0531497 0.0537882 0.0531279 0.0531221 0.0533696 0.0532022 0.0531178 0.0534208 0.0531021 0.0535007 0.0528218 0.0528518 0.0531148 0.0533701 0.0528881 0.053454 0.0529824 0.0526925 0.0530689 0.0534766 0.054907 0.0527626 0.0535368 0.0530079 0.0548274 0.0527507 0.0547903 0.0531494 0.0535869 0.0529139 0.0548719 0.0536678 0.0548517 0.0532386 0.0529748 0.0548177 0.0536239 0.0531549 0.0530309 0.0549752 0.0535814 0.0530669 0.054925 0.0530119 0.0537938 0.0530655 0.0528057 0.0531125 0.0537532 0.054985 0.0531756 0.0529115 0.0536707 0.0549582 0.0531009 0.0522112 0.0549452 0.052997 0.0537529 0.0522774 0.0548908 0.0530567 0.0523916 0.0537098 0.0548396 0.0530052 0.0548571 0.0521045 0.0537422 0.0529122 0.0549063 0.0521681 0.0538588 0.0529987 0.0538122 0.0522226 0.052882 0.0548699 0.0538173 0.0524709 0.0529632 0.0548171 0.0525615 0.0537514 0.0547341 0.0528078 0.0523695 0.053747 0.0546938 0.0523358 0.05279 0.0538883 0.0547564 0.0524587 0.053933 0.0547091 0.0527433 0.0523732 0.0546443 0.0529197 0.0540012 0.0520378 0.0528519 0.054514 0.0539565 0.0520812 0.0528661 0.0545824 0.0540133 0.0519382 0.0546621 0.0540844 0.0527692 0.0545274 0.0518158 0.0538104 0.0528036 0.0545526 0.0538986 0.0520201 0.0527069 0.0545963 0.053879 0.0518875 0.0531103 0.0547813 0.0537876 0.0522436 0.0530109 0.0547455 0.052134 0.053823 0.0529239 0.0546842 0.0522872 0.0539652 0.0547265 0.0530261 0.0538866 0.0522443 0.0548021 0.0530317 0.0539596 0.0520551 0.0529331 0.0547618 0.0540367 0.052894 0.0547023 0.0541034 0.0520371 0.0528259 0.0546206 0.0540316 0.0521602 0.0529355 0.054576 0.0541015 0.0521244 0.0546399 0.0528901 0.0540889 0.0525469 0.0541645 0.0528246 0.0526163 0.0546001 0.0541872 0.0528381 0.0526812 0.0540091 0.0542436 0.0527411 0.0526359 0.0539211 0.0541627 0.0527693 0.0538559 0.054226 0.0524535 0.0528429 0.0543284 0.0539602 0.0525348 0.05273 0.0542651 0.0540247 0.052713 0.0526491 0.053929 0.0528341 0.0543955 0.0538117 0.0526576 0.0527422 0.0537326 0.0543348 0.0526218 0.0536773 0.0526332 0.053777 0.0543112 0.0526381 0.0526039 0.0538417 0.0543868 0.0527443 0.0526716 0.0538734 0.0542007 0.0527251 0.0524072 0.0542615 0.0537817 0.0526074 0.0523283 0.0543043 0.0537418 0.0525269 0.0524966 0.0541776 0.0540234 0.0526409 0.0542748 0.0522013 0.0539698 0.0543705 0.0540622 0.052512 0.0523764 0.0544439 0.0541464 0.0522919 0.0539595 0.0543295 0.0525133 0.0541963 0.0541062 0.0544149 0.0525433 0.0539366 0.0538786 0.054072 0.052409 0.0538405 0.0539182 0.0538144 0.0539666 0.0539688 0.0523064 0.0538735 0.0538757 0.0538114 0.0537777 0.0538656 0.0524418 0.053954 0.0540108 0.0539529 0.0538181 0.053928 0.0540993 0.0539676 0.0537403 0.0540371 0.0538684 0.0540521 0.0536115 0.0541293 0.05355 0.0540332 0.0537556 0.0541175 0.0536438 0.0540513 0.0534606 0.0536776 0.0541295 0.0539685 0.0535809 0.0536491 0.0541757 0.0536909 0.0538907 0.0535412 0.0537511 0.0538415 0.0536236 0.054042 0.0536486 0.0539356 0.0533862 0.053806 0.0538876 0.0534629 0.0541767 0.0537129 0.0533237 0.0538504 0.0542236 0.0533975 0.0537474 0.0535358 0.0539604 0.0541712 0.0536639 0.0540339 0.0534657 0.0540286 0.0536274 0.0541992 0.0533982 0.0535825 0.0541089 0.0541969 0.0536829 0.0537739 0.0540916 0.0541132 0.0535744 0.0537267 0.054154 0.0535232 0.0536345 0.0538869 0.0540431 0.0535251 0.0536422 0.0539622 0.0540384 0.053468 0.0538298 0.0541101 0.0538075 0.0535165 0.0537136 0.0538726 0.0541755 0.0536758 0.0536102 0.0539442 0.054261 0.053558 0.0540749 0.0535145 0.0542116 0.0534965 0.0540132 0.0543253 0.0534261 0.0539237 0.0534642 0.0542322 0.0535598 0.0538543 0.05359 0.0543122 0.0533949 0.0539919 0.0535435 0.0543966 0.0542608 0.0533777 0.0544679 0.0542386 0.0542961 0.0544443 0.0534353 0.0541667 0.0543367 0.0543787 0.0540874 0.0532805 0.0541978 0.0544707 0.0541674 0.0533278 0.0541951 0.05423 0.0545096 0.0542774 0.0532824 0.0541725 0.0542764 0.0540279 0.053467 0.0543493 0.0543645 0.0539569 0.0534739 0.0543848 0.0543225 0.0539574 0.0533367 0.0542583 0.0540942 0.0533847 0.0543669 0.0542965 0.0540218 0.0533686 0.0542438 0.0543592 0.054322 0.0532612 0.0542843 0.054286 0.0532054 0.0544597 0.0543255 0.0544159 0.0542291 0.053303 0.0541246 0.0541552 0.0542794 0.054518 0.0532242 0.0540994 0.0532397 0.0544299 0.0540398 0.0543527 0.0531057 0.0540012 0.0545392 0.0542136 0.0540567 0.0531118 0.054081 0.0541999 0.0544992 0.0541553 0.0536775 0.054243 0.0540126 0.0540027 0.0535994 0.0541171 0.0541397 0.0540652 0.0535777 0.054059 0.0541953 0.0542113 0.0535419 0.0540519 0.0541599 0.0541343 0.0541222 0.0537215 0.0541423 0.0536164 0.0541154 0.0534952 0.0541843 0.0537821 0.0540482 0.0541253 0.0534478 0.0537542 0.0538851 0.0541813 0.0534633 0.05359 0.0542293 0.0537722 0.0534055 0.0542177 0.0537689 0.0536173 0.0533968 0.0542958 0.05394 0.0536814 0.0533346 0.0542765 0.0539262 0.0536455 0.0541601 0.0534059 0.0538141 0.0538428 0.0542327 0.053487 0.0542889 0.0538474 0.0539413 0.0533852 0.0542042 0.0536897 0.053878 0.0533091 0.0542044 0.0537014 0.0535195 0.0537808 0.0543166 0.0533 0.0536033 0.054262 0.0538404 0.0532903 0.0537609 0.0543373 0.053681 0.0533494 0.053473 0.0543134 0.0532392 0.0536083 0.0535967 0.0543905 0.05327 0.0539856 0.053543 0.0543637 0.0532088 0.0538255 0.0534409 0.0531531 0.054415 0.0539023 0.0543195 0.0532006 0.053956 0.0542463 0.0533533 0.0531418 0.054285 0.0538749 0.0543177 0.053505 0.053065 0.0537391 0.0543502 0.0536764 0.0533384 0.0544283 0.0537089 0.0536659 0.0543625 0.0532761 0.053743 0.0543708 0.0535997 0.0531662 0.0535585 0.0543566 0.0531782 0.053773 0.0536376 0.0544175 0.0532825 0.0537965 0.0543991 0.0536106 0.0532239 0.0537236 0.0544476 0.0539113 0.053108 0.0544783 0.0536479 0.0539649 0.0531292 0.0544875 0.0532477 0.0538682 0.0530226 0.0530922 0.0543846 0.0538167 0.0529924 0.0531762 0.0539325 0.0544046 0.0530452 0.053295 0.0540234 0.0544797 0.0533416 0.0529503 0.0540723 0.0544494 0.0532518 0.0529302 0.0541108 0.0544598 0.0531951 0.053099 0.053983 0.0530394 0.0545197 0.0530616 0.0529744 0.0539298 0.0545179 0.0528928 0.0530586 0.054021 0.0544945 0.0530819 0.0529846 0.0537649 0.0545495 0.0531369 0.0538324 0.052945 0.0545691 0.0529837 0.0536637 0.0529431 0.0545478 0.0534037 0.052762 0.0536944 0.0546239 0.0533197 0.0528684 0.0537336 0.0546018 0.0532428 0.0538889 0.0528672 0.0543056 0.0532686 0.0538639 0.0528168 0.0534392 0.0538411 0.0542283 0.0527181 0.053364 0.0537471 0.0542815 0.0537968 0.0533498 0.0543306 0.0532123 0.0531729 0.053768 0.0544051 0.0530909 0.05318 0.0543561 0.0544391 0.0530096 0.0531007 0.0544365 0.0530817 0.054405 0.0530453 0.0543802 0.05319 0.0531825 0.0530739 0.0544857 0.0544736 0.0532615 0.0544306 0.0543966 0.0531639 0.0544925 0.0531113 0.0543587 0.0529779 0.0529018 0.0543576 0.0543452 0.0528304 0.0543125 0.0530392 0.0543873 0.0528021 0.0544877 0.052679 0.054451 0.0529225 0.0527298 0.0545151 0.0529473 0.0543799 0.052914 0.054415 0.0528492 0.0544231 0.0528176 0.054393 0.0527755 0.0544932 0.0527801 0.0529415 0.0525664 0.0544699 0.0528495 0.0525874 0.0545455 0.0524772 0.0528208 0.052507 0.0545207 0.0526701 0.0545699 0.0530814 0.0526889 0.0526138 0.0545761 0.0525355 0.0529544 0.0525033 0.0545133 0.0530014 0.0529774 0.0529464 0.0546044 0.0528615 0.0529966 0.0546383 0.0530418 0.0545707 0.0528666 0.0529388 0.0528318 0.0527524 0.0545173 0.0526586 0.0528351 0.0545755 0.052581 0.0528668 0.0545421 0.052649 0.0546303 0.0527766 0.05461 0.0527525 0.0545981 0.0526304 0.0544344 0.0546616 0.0534509 0.0542273 0.0546631 0.0533683 0.0542772 0.0546549 0.054259 0.054696 0.0535389 0.0547119 0.0541474 0.0535248 0.0546347 0.053466 0.0546665 0.053371 0.0546965 0.05345 0.05271 0.0532907 0.0546706 0.052791 0.0532101 0.054732 0.0531349 0.0526674 0.0547265 0.0533475 0.0527332 0.0532714 0.0547731 0.0532505 0.0526585 0.0547492 0.0531601 0.0547561 0.0531809 0.0548028 0.0535724 0.0544517 0.0544423 0.0534215 0.0544918 0.0541823 0.0545191 0.0534969 0.0545429 0.0536177 0.0545681 0.0526847 0.0534531 0.0545115 0.053532 0.0527169 0.0545617 0.0545102 0.053274 0.0525658 0.0542996 0.0545418 0.0533502 0.0545202 0.0543547 0.0525894 0.0531903 0.0543211 0.0545936 0.