# vtk DataFile Version 3.0
vtk output
ASCII
DATASET UNSTRUCTURED_GRID
POINTS 31987 float
0 0 0
1 0 0
1 1 0
0 1 0
0 0 0
0 0 0
1 0 0
1 1 0
0 1 0
0 0 0
0 0 0
1 0 0
1 1 0
0 1 0
0 0 0
0 0 0
1 0 0
1 1 0
0 1 0
0 0 0
0 0 0
1 0 0
1 1 0
0 1 0
0 0 0
0 0 0
1 0 0
1 1 0
0 1 0
0 0 0
0 0 0
1 0 0
1 1 0
0 1 0
0 0 0
0 0 0
1 0 0
1 1 0
0 1 0
0 0 0
0 0 0
1 0 0
1 1 0
0 1 0
0 0 0
0 0 0
1 0 0
1 1 0
0 1 0
0 0 0
0 0 0
1 0 0
1 1 0
0 1 0
0 0 0
0 0 0
1 0 0
1 1 0
0 1 0
0 0 0
0 0 0
1 0 0
1 1 0
0 1 0
0 0 0
0 0 0
1 0 0
1 1 0
0 1 0
0 0 0
0 0 0
1 0 0
1 1 0
0 1 0
0 0 0
0 0 0
1 0 0
1 1 0
0 1 0
0 0 0
0 0 0
1 0 0
1 1 0
0 1 0
0 0 0
0 0 0
1 0 0
1 1 0
0 1 0
0 0 0
0 0 0
1 0 0
1 1 0
0 1 0
0 0 0
0 0 0
1 0 0
1 1 0
0 1 0
0 0 0
0 0 0
1 0 0
1 1 0
0 1 0
0 0 0
0 0 0
1 0 0
1 1 0
0 1 0
0 0 0
0.551028 0.0987744 0
0.605599 0 0
1 0 0
1 0.78868 0
0.748366 0.410803 0
0.551028 0.0987744 0
0 0 0
1 0 0
1 1 0
0 1 0
0 0 0
0 0 0
0.00547281 0 0
0.341475 0.200792 0
0.951657 0.578825 0
1 0.610235 0
1 1 0
0 1 0
0 0 0
0 0 0
1 0 0
1 1 0
0 1 0
0 0 0
0 0 0
1 0 0
1 1 0
0 1 0
0 0 0
0 0 0
1 0 0
1 1 0
0 1 0
0 0 0
0 0 0
1 0 0
1 1 0
0 1 0
0 0 0
0 0 0
0.21055 0 0
1 0.593335 0
1 1 0
0 1 0
0 0 0
0 0 0
1 0 0
1 1 0
0 1 0
0 0 0
0.536418 0.121863 0
0.606603 0 0
1 0 0
1 0.886534 0
0.686342 0.377663 0
0.536418 0.121863 0
0 0 0
0.185955 0 0
1 0.581767 0
1 1 0
0 1 0
0 0 0
0.513419 0 0
1 0 0
1 0.861772 0
0.758003 0.446061 0
0.513419 0 0
0 0 0
1 0 0
1 1 0
0 1 0
0 0 0
0 0 0
0.24951 0 0
0.560492 0.231206 0
1 0.575725 0
1 1 0
0 1 0
0 0 0
0.657319 0 0
1 0 0
1 1 0
0.171752 1 0
0.657319 0 0
0 0 0
1 0 0
1 1 0
0 1 0
0 0 0
0 0 0
1 0 0
1 1 0
0 1 0
0 0 0
0 0 0
1 0 0
1 1 0
0 1 0
0 0 0
0 0 0
1 0 0
1 1 0
0 1 0
0 0 0
0 0 0
1 0 0
1 1 0
0 1 0
0 0 0
0 0 0
1 0 0
1 1 0
0 1 0
0 0 0
0 0 0
1 0 0
1 1 0
0 1 0
0 0 0
0 0 0
1 0 0
1 1 0
0 1 0
0 0 0
0 0 0
1 0 0
1 1 0
0 1 0
0 0 0
0 0 0
0.170317 0 0
1 0.476599 0
1 1 0
0 1 0
0 0 0
0 0 0
1 0 0
1 1 0
0 1 0
0 0 0
0 0 0
1 0 0
1 1 0
0 1 0
0 0 0
0.047275 0 0
1 0 0
1 1 0
0.913461 1 0
0.424743 0.444416 0
0.047275 0 0
0 0 0
1 0 0
1 1 0
0 1 0
0 0 0
0 0 0
1 0 0
1 1 0
0 1 0
0 0 0
0 0 0
1 0 0
1 1 0
0 1 0
0 0 0
0 0 0
1 0 0
1 1 0
0 1 0
0 0 0
0 0 0
0.146991 0 0
1 0.469806 0
1 1 0
0 1 0
0 0 0
0 0 0
1 0 0
1 1 0
0 1 0
0 0 0
0 0 0
1 0 0
1 1 0
0 1 0
0 0 0
0 0 0
1 0 0
1 1 0
0 1 0
0 0 0
0 0 0
0.218981 0 0
0.551493 0.233529 0
1 0.565567 0
1 1 0
0 1 0
0 0 0
0 0 0
1 0 0
1 1 0
0 1 0
0 0 0
0 0 0
1 0 0
1 1 0
0 1 0
0 0 0
0 0 0
1 0 0
1 1 0
0 1 0
0 0 0
0 0 0
0.12956 0 0
1 0.529703 0
1 1 0
0 1 0
0 0 0
0.201057 0 0
1 0 0
1 0.938499 0
0.658995 0.54663 0
0.201057 0 0
0 0 0
1 0 0
1 1 0
0 1 0
0 0 0
0 0 0
0.0950865 0 0
1 0.522351 0
1 1 0
0 1 0
0 0 0
0 0 0
1 0 0
1 1 0
0 1 0
0 0 0
0.593336 0.519208 0
0.240265 0.153539 0
0.0953089 0 0
1 0 0
1 0.922155 0
0.593336 0.519208 0
0 0 0
1 0 0
1 1 0
0 1 0
0 0 0
0 0 0
1 0 0
1 1 0
0 1 0
0 0 0
0 0 0
1 0 0
1 1 0
0 1 0
0 0 0
0 0 0
1 0 0
1 1 0
0 1 0
0 0 0
0 0 0
1 0 0
1 1 0
0 1 0
0 0 0
0 0 0
1 0 0
1 1 0
0 1 0
0 0 0
0 0 0
1 0 0
1 1 0
0 1 0
0 0 0
0.197273 0 0
1 0 0
1 1 0
0.824224 1 0
0.491196 0.478492 0
0.197273 0 0
0 0 0
1 0 0
1 1 0
0 1 0
0 0 0
0 0 0
1 0 0
1 1 0
0 1 0
0 0 0
0 0 0
1 0 0
1 1 0
0 1 0
0 0 0
0 0 0
1 0 0
1 1 0
0 1 0
0 0 0
0 0 0
1 0 0
1 1 0
0 1 0
0 0 0
0 0 0
1 0 0
1 1 0
0 1 0
0 0 0
0.105911 0 0
1 0 0
1 1 0
0.774917 1 0
0.24435 0.213836 0
0.105911 0 0
0 0 0
1 0 0
1 1 0
0 1 0
0 0 0
0 0 0
1 0 0
1 1 0
0 1 0
0 0 0
0 0 0
1 0 0
1 1 0
0 1 0
0 0 0
0 0 0
1 0 0
1 1 0
0 1 0
0 0 0
0 0 0
1 0 0
1 1 0
0 1 0
0 0 0
0 0 0
1 0 0
1 1 0
0 1 0
0 0 0
0.213765 0 0
1 0 0
1 1 0
0.814283 1 0
0.494442 0.477272 0
0.213765 0 0
0 0 0
1 0 0
1 1 0
0 1 0
0 0 0
0 0 0
1 0 0
1 1 0
0 1 0
0 0 0
0 0 0
1 0 0
1 1 0
0 1 0
0 0 0
0 0 0
1 0 0
1 1 0
0 1 0
0 0 0
0 0 0
1 0 0
1 1 0
0 1 0
0 0 0
0 0 0
1 0 0
1 1 0
0 1 0
0 0 0
0 0 0
1 0 0
1 1 0
0 1 0
0 0 0
0 0 0
1 0 0
1 1 0
0 1 0
0 0 0
0 0 0
1 0 0
1 1 0
0 1 0
0 0 0
0 0 0
1 0 0
1 1 0
0 1 0
0 0 0
0 0 0
1 0 0
1 1 0
0 1 0
0 0 0
0 0 0
1 0 0
1 1 0
0 1 0
0 0 0
0 0 0
1 0 0
1 1 0
0 1 0
0 0 0
0 0 0
1 0 0
1 1 0
0 1 0
0 0 0
0 0 0
1 0 0
1 1 0
0 1 0
0 0 0
0 0 0
1 0 0
1 1 0
0 1 0
0 0 0
0 0 0
1 0 0
1 1 0
0 1 0
0 0 0
0 0 0
1 0 0
1 1 0
0 1 0
0 0 0
0 0 0
1 0 0
1 1 0
0 1 0
0 0 0
0 0 0
0.333869 0 0
1 0.382025 0
1 1 0
0 1 0
0 0 0
0 0 0
1 0 0
1 1 0
0 1 0
0 0 0
0 0 0
1 0 0
1 1 0
0 1 0
0 0 0
0 0 0
1 0 0
1 1 0
0 1 0
0 0 0
0 0 0
1 0 0
1 1 0
0 1 0
0 0 0
0 0 0
1 0 0
1 1 0
0 1 0
0 0 0
0 0 0
1 0 0
1 1 0
0 1 0
0 0 0
0 0 0
1 0 0
1 1 0
0 1 0
0 0 0
0 0 0
1 0 0
1 1 0
0 1 0
0 0 0
0 0 0
0.238642 0 0
0.477641 0.142445 0
1 0.458583 0
1 1 0
0 1 0
0 0 0
0 0 0
1 0 0
1 1 0
0 1 0
0 0 0
0 0 0
1 0 0
1 1 0
0 1 0
0 0 0
0 0 0
1 0 0
1 1 0
0 1 0
0 0 0
0.229305 0 0
1 0 0
1 1 0
0.804991 1 0
0.497575 0.476095 0
0.229305 0 0
0 0 0
0.222988 0 0
0.467783 0.142067 0
1 0.455645 0
1 1 0
0 1 0
0 0 0
0 0 0
1 0 0
1 1 0
0 1 0
0 0 0
0 0 0
1 0 0
1 1 0
0 1 0
0 0 0
0 0 0
1 0 0
1 1 0
0 1 0
0 0 0
0.122305 0 0
1 0 0
1 1 0
0.765737 1 0
0.24923 0.203953 0
0.122305 0 0
0 0 0
0.29737 0 0
1 0.405605 0
1 1 0
0 1 0
0 0 0
0 0 0
1 0 0
1 1 0
0 1 0
0 0 0
0 0 0
1 0 0
1 1 0
0 1 0
0 0 0
0 0 0
1 0 0
1 1 0
0 1 0
0 0 0
0 0 0
1 0 0
1 1 0
0 1 0
0 0 0
0 0 0
1 0 0
1 1 0
0 1 0
0 0 0
0 0 0
1 0 0
1 1 0
0 1 0
0 0 0
0 0 0
1 0 0
1 1 0
0 1 0
0 0 0
0 0 0
1 0 0
1 1 0
0 1 0
0 0 0
0 0 0
0.222039 0 0
0.238156 0.00819984 0
0.88198 0.344278 0
1 0.407339 0
1 1 0
0 1 0
0 0 0
0 0 0
1 0 0
1 1 0
0 1 0
0 0 0
0 0 0
1 0 0
1 1 0
0 1 0
0 0 0
0 0 0
1 0 0
1 1 0
0 1 0
0 0 0
0.0833072 0 0
1 0 0
1 1 0
0.724826 1 0
0.0833072 0 0
0 0 0
1 0 0
1 1 0
0 1 0
0 0 0
0 0 0
1 0 0
1 1 0
0 1 0
0 0 0
0 0 0
1 0 0
1 1 0
0 1 0
0 0 0
0 0 0
0.0658701 0 0
0.231601 0.11734 0
1 0.6741 0
1 1 0
0 1 0
0 0 0
0.298933 0 0
1 0 0
1 1 0
0.9994 1 0
0.674574 0.546683 0
0.578773 0.410601 0
0.298933 0 0
0 0.0135652 0
0.330192 0.203453 0
0.951578 0.573918 0
1 0.604232 0
1 1 0
0 1 0
0 0.0135652 0
0.363097 0 0
1 0 0
1 0.949859 0
0.65967 0.453677 0
0.363097 0 0
0 0 0
0.296929 0 0
0 0.17695 0
0 0 0
0 0.0289474 0
0.318686 0.206166 0
0.951529 0.570891 0
1 0.600246 0
1 1 0
0 1 0
0 0.0289474 0
0.438092 0 0
1 0 0
1 1 0
0.980833 1 0
0.683224 0.46201 0
0.581562 0.273457 0
0.438092 0 0
0 0.11506 0
0.940706 0.581426 0
1 0.612501 0
1 1 0
0 1 0
0 0.11506 0
0.318085 0 0
1 0 0
1 1 0
0.983528 1 0
0.674963 0.546921 0
0.579974 0.404769 0
0.318085 0 0
0 0.129885 0
0.145265 0.201596 0
0.674604 0.470754 0
1 0.643929 0
1 1 0
0 1 0
0 0.129885 0
0 0 0
0.244716 0 0
0.121286 0.0516221 0
0 0.0998191 0
0 0 0
0 0.039751 0
0.312262 0.207681 0
0.951418 0.563977 0
1 0.592475 0
1 1 0
0 1 0
0 0.039751 0
0.156626 0 0
1 0 0
1 0.95375 0
0.913324 0.858827 0
0.492719 0.390164 0
0.297516 0.165818 0
0.156626 0 0
0 0 0
0.272607 0 0
0 0.145595 0
0 0 0
0 0 0
0.00597263 0 0
0.274395 0.154562 0
1 0.583397 0
1 1 0
0 1 0
0 0 0
0.353954 0 0
1 0 0
1 0.880002 0
0.72393 0.519079 0
0.639714 0.403954 0
0.353954 0 0
0 0 0
0.0557025 0 0
0.468043 0.245087 0
1 0.576843 0
1 1 0
0 1 0
0 0 0
0 0.0649865 0
1 0.61918 0
1 1 0
0 1 0
0 0.0649865 0
0.619628 0 0
1 0 0
1 0.939234 0
0.689705 0.515137 0
0.49323 0.236307 0
0.619628 0 0
0 0 0
0.00401752 0 0
0 0.00485599 0
0 0 0
0 0.0703893 0
0.288475 0.213291 0
0.951253 0.553699 0
1 0.580132 0
1 1 0
0 1 0
0 0.0703893 0
0.69686 0 0
1 0 0
1 0.156668 0
0.69686 0 0
0.466783 0 0
1 0 0
1 0.920478 0
0.679964 0.379828 0
0.466783 0 0
0 0.136894 0
0.262821 0.271698 0
1 0.677631 0
1 1 0
0 1 0
0 0.136894 0
0 0 0
0.265716 0 0
0.14785 0.0546669 0
0 0.11983 0
0 0 0
0.662525 0 0
1 0 0
1 1 0
0.151028 1 0
0.662525 0 0
0 0.150772 0
0.252884 0.275666 0
1 0.671749 0
1 1 0
0 1 0
0 0.150772 0
0 0 0
0.370073 0 0
0 0.19068 0
0 0 0
0 0.160631 0
0.247075 0.277986 0
1 0.662445 0
1 1 0
0 1 0
0 0.160631 0
0 0 0
0.029715 0 0
0 0.038458 0
0 0 0
0.464322 0 0
1 0 0
1 1 0
0.968464 1 0
0.696708 0.471443 0
0.583567 0.245084 0
0.464322 0 0
0 0 0
0.111644 0 0
0 0.0400846 0
0 0 0
0 0 0
0.00255634 0 0
0 0.00287242 0
0 0 0
0.637493 0 0
1 0 0
1 1 0
0.138359 1 0
0.37805 0.508536 0
0.637493 0 0
0 0.241988 0
0.195065 0.320968 0
0.852218 0.597784 0
1 0.663237 0
1 1 0
0 1 0
0 0.241988 0
0 0 0
0.0275061 0 0
0 0.033381 0
0 0 0
0.649056 0.0198415 0
0.658008 0 0
1 0 0
1 1 0
0.247473 1 0
0.614757 0.0995763 0
0.649056 0.0198415 0
0 0 0
0.383627 0 0
0 0.210971 0
0 0 0
0 0.185168 0
1 0.690963 0
1 1 0
0 1 0
0 0.185168 0
0.253147 0 0
1 0 0
1 0.987375 0
0.658968 0.546628 0
0.253147 0 0
0 0.00512121 0
0.184425 0.121455 0
1 0.647561 0
1 1 0
0 1 0
0 0.00512121 0
0 0 0
0.327726 0 0
0 0.143257 0
0 0 0
0.387279 0 0
1 0 0
1 1 0
0.960836 1 0
0.947137 0.97756 0
0.387279 0 0
0 0.0364587 0
0.148988 0.124546 0
1 0.639016 0
1 1 0
0 1 0
0 0.0364587 0
0.266334 0 0
1 0 0
1 1 0
0.991504 1 0
0.654975 0.546456 0
0.266334 0 0
0 0.185735 0
0.227181 0.28593 0
1 0.652556 0
1 1 0
0 1 0
0 0.185735 0
0.789837 0 0
1 0 0
1 0.0850717 0
0.789837 0 0
0.122353 0 0
1 0 0
1 1 0
0.865999 1 0
0.441273 0.438023 0
0.122353 0 0
0 0 0
0.407721 0 0
0.25349 0.0772144 0
0 0.194058 0
0 0 0
0 0 0
0.0557698 0 0
0.33417 0.199497 0
0.907236 0.630956 0
1 0.702679 0
1 1 0
0 1 0
0 0 0
0.337839 0.137377 0
0.25976 0 0
1 0 0
1 1 0
0.84457 1 0
0.337839 0.137377 0
0.252264 0 0
1 0 0
1 0.998165 0
0.393494 0.198356 0
0.252264 0 0
0 0 0
0.286715 0 0
0 0.0659785 0
0 0 0
0 0.38405 0
0.408304 0.229792 0
1 0.680239 0
1 1 0
0 1 0
0 0.38405 0
0.578921 0 0
1 0 0
1 0.249796 0
0.61248 0.0207812 0
0.578921 0 0
0.39607 0.22782 0
0.537741 0 0
1 0 0
1 1 0
0.831794 1 0
0.39607 0.22782 0
0 0 0
0.0752114 0 0
1 0.516895 0
1 1 0
0 1 0
0 0 0
0.558025 0 0
1 0 0
1 0.287006 0
0.594327 0.0245884 0
0.558025 0 0
0 0 0
0.191389 0 0
0.450557 0.141407 0
1 0.445665 0
1 1 0
0 1 0
0 0 0
0.378766 0 0
1 0 0
1 0.890025 0
0.729459 0.517901 0
0.641806 0.391667 0
0.378766 0 0
0 0 0
0.0761035 0 0
0.382263 0.155786 0
0.50976 0.221594 0
1 0.484002 0
1 1 0
0 1 0
0 0 0
0 0 0
0.57101 0 0
0 0.326488 0
0 0 0
0 0 0
0.165091 0 0
0.538749 0.23682 0
1 0.544733 0
1 1 0
0 1 0
0 0 0
0.392941 0 0
1 0 0
1 0.915652 0
0.726048 0.518628 0
0.641941 0.390874 0
0.392941 0 0
0 0 0
0.519398 0 0
0 0.236658 0
0 0 0
0 0 0
0.262168 0 0
1 0.535141 0
1 1 0
0 1 0
0 0 0
0.473655 0 0
1 0 0
1 1 0
0.949544 1 0
0.690837 0.467335 0
0.583901 0.240356 0
0.473655 0 0
0 0 0
0.0259859 0 0
1 0.506366 0
1 1 0
0 1 0
0 0 0
0.503232 0 0
1 0 0
1 0.474686 0
[...]
CELL_DATA 5991
FIELD FieldData 3
weight 1 5991 float
 0.978124 0.990794 0.990755 0.990472 0.984324 0.984279 0.984536 0.984263 0.990473 0.996673 0.990438 0.965446 0.965705 0.971991 0.96539 0.971809 0.978213 0.977965 0.971808 0.971648 0.977988 0.978287 0.890391 0.978003 1.1844 0.984322 0.984378 0.990453 0.990865 1.17803 0.990396 0.896805 1.18462 0.897053 0.98433 1.17811 0.896649 0.984513 0.953341 0.990742 0.953341 0.990389 0.997106 0.996994 0.996631 0.996965 1.17171 0.996757 1.0029 0.946719 1.00307 0.959615 0.996827 0.953117 1.17799 0.996765 1.00324 1.00312 1.1782 1.0031 1.00952 1.00957 1.17817 0.928301 1.00959 1.17817 1.00958 0.934306 1.01573 1.01583 1.022 1.17187 1.01566 1.00917 1.17209 0.940692 1.0094 1.17816 1.02163 1.17199 1.01586 1.17809 0.946741 1.02195 1.17811 1.01558 1.17176 1.00295 1.17168 0.940507 1.17834 0.997103 1.17205 0.965434 0.996646 1.17832 0.965765 1.17808 1.00312 1.17824 0.959315 1.00922 0.971664 1.00954 0.971928 0.959528 1.00943 0.965511 1.00311 1.17174 0.953245 1.00329 1.003 1.18444 1.00919 1.0157 1.00916 1.01577 1.17804 1.01584 1.0221 1.02202 0.940462 1.18439 1.02793 1.02805 1.01569 0.947029 1.18436 1.18422 1.18416 1.18446 0.965808 1.18429 1.02201 0.959151 1.01564 1.17819 1.02187 1.18446 1.02809 0.959603 1.02182 0.965771 1.02788 1.18417 0.928226 1.18413 0.921884 0.702997 1.19064 0.915398 1.18428 0.928199 1.1842 0.721653 1.19086 0.934243 0.703047 1.18435 0.921815 1.18441 1.18454 0.902894 0.728323 1.19041 0.728257 0.90312 1.19042 0.721657 0.903115 1.19687 0.734283 1.19062 0.728086 0.90936 0.709449 0.728299 0.909199 1.19702 0.728078 0.909215 0.721732 1.1968 0.928081 1.19701 0.728334 0.921759 1.19047 0.934483 1.19672 0.740491 0.946675 0.727996 1.19085 0.934232 0.934282 0.753136 1.19677 0.740411 0.940707 1.18428 0.746993 1.19079 0.915689 1.18427 0.765856 1.19711 0.921756 0.759466 1.19058 0.915669 1.1908 0.753031 0.928116 1.19062 0.746832 1.18425 0.92807 0.740708 1.18454 0.915671 0.734145 0.728012 0.921845 0.753375 1.19064 0.846761 0.765624 0.865537 0.759433 1.19081 0.734127 0.840675 0.759458 1.19057 0.859236 0.721665 1.19687 0.871672 0.740773 1.19062 0.859216 0.740483 1.19702 0.865598 0.834508 0.728118 1.19683 0.734213 0.834416 1.19666 0.746706 0.740874 0.846914 0.71586 1.19712 0.84701 1.19056 0.746916 0.853065 0.840692 0.746765 1.19694 0.884437 0.740585 1.19675 0.865814 1.19696 0.746791 0.878322 0.747101 0.89057 1.19696 1.02824 0.746727 0.871943 1.02788 1.02803 0.734428 0.884549 1.04059 0.753344 1.03441 0.852998 1.0407 1.03413 0.74701 1.02799 0.846948 1.03449 1.03456 1.04073 0.853109 0.752882 1.04059 0.74694 1.04688 1.04676 1.04044 0.747061 0.70292 0.834197 1.04683 0.75297 1.05326 0.859532 1.05291 1.05325 1.04703 0.859541 1.0404 0.765865 1.04067 1.05956 0.840624 0.75923 1.05321 1.04708 1.03432 0.815641 1.02169 1.03416 1.03428 1.04074 1.02822 0.821897 1.02163 0.746939 1.02832 0.809259 0.752889 1.028 1.03452 1.03452 0.803357 1.04709 0.753014 1.04682 1.04075 0.721986 1.04682 1.05303 1.05326 1.05313 0.75932 1.05932 0.722091 1.04038 0.828067 1.04076 1.04701 1.04693 0.721851 1.04081 1.06543 0.765558 1.05954 0.828143 0.727902 1.05931 1.07169 0.821988 1.06545 0.778352 0.728339 1.06572 1.06557 0.815663 1.06539 1.05939 0.734127 1.07185 0.778322 1.06581 1.06568 0.79673 1.07796 1.0719 0.727893 1.07181 1.07815 1.07797 0.721894 0.77164 1.08418 0.790764 1.08447 0.722094 0.790775 1.07835 0.790874 1.07163 0.734611 1.07164 1.08446 1.07796 0.734209 1.07808 0.809532 1.05926 0.784139 1.05337 0.734561 1.05915 0.803241 1.05949 0.784255 1.06567 0.740868 0.796985 1.05956 1.05336 1.05297 0.790726 1.04674 0.715572 1.05315 0.797117 1.07191 1.06552 1.05925 0.778255 0.702939 0.834135 1.05917 1.07189 1.06586 0.771895 0.815495 0.709409 1.07796 0.765393 0.822072 1.07187 0.721829 1.08435 1.0779 1.06587 0.72181 0.772076 1.06582 0.840798 0.71546 1.07188 1.07206 1.0782 0.728061 0.790489 1.02197 0.82792 1.02183 1.02794 1.03437 0.78449 1.02796 0.821631 1.02799 1.02202 0.721875 1.01571 1.0096 0.78431 0.715795 0.80951 0.802911 0.803001 1.02183 0.803091 1.01585 0.727882 0.797085 1.03449 1.04067 0.815603 1.03451 0.71587 1.04053 1.04703 1.04072 0.728272 1.02809 0.809263 1.02794 0.727936 1.02165 0.815395 1.04087 0.734156 0.809302 1.0344 0.815566 1.03418 1.00316 0.7344 1.00929 0.997044 0.802927 1.00307 0.734325 0.890639 1.01586 1.01548 1.00923 0.746736 1.00311 0.990428 0.878118 0.796685 1.00323 0.984554 0.740697 0.871999 0.803038 0.884458 1.00925 0.896863 0.796682 0.878214 0.734199 0.996833 0.809496 1.00318 0.996728 1.02181 0.815675 1.00941 0.746708 0.890795 0.809215 0.740522 0.803296 0.865456 0.740771 1.0217 0.865537 0.80925 1.02819 0.734178 1.02826 0.846846 1.01559 1.028 1.01561 0.872021 1.00922 1.02201 0.746686 0.772053 1.00925 1.01573 0.865396 1.05314 0.753038 1.04669 1.05328 1.05323 0.778368 0.753278 0.853106 1.05942 1.04663 0.765667 1.03413 0.734483 1.04065 1.05335 1.04695 0.903179 0.740782 1.04688 0.777988 1.05927 0.915742 0.734422 1.06548 1.0595 0.784477 1.0658 0.896848 0.740586 1.07163 0.790518 1.07209 0.909225 1.06559 0.74664 1.0594 0.784257 1.05955 1.05301 1.07207 0.921668 1.06553 0.746789 0.765429 1.06567 1.04048 0.896831 1.03434 0.740575 1.03413 0.772003 1.04705 0.903031 0.7471 1.04044 1.02808 1.01578 0.8782 0.746649 1.0221 0.772081 1.03458 1.03433 0.884586 0.740441 0.777984 1.02195 1.02799 0.871922 0.753297 0.772009 1.05288 0.890787 1.04667 0.790565 0.752881 0.88445 1.04686 0.803149 1.05333 0.75291 0.865678 0.796851 1.05923 1.05311 0.790695 0.890462 1.0406 0.752928 1.04058 0.803278 1.02792 0.834412 1.04697 0.803034 1.04087 0.753083 1.03461 1.08449 1.0905 0.809235 1.09047 0.84667 0.759269 1.09663 1.09051 0.815849 1.09684 0.759504 0.83459 1.09054 0.797009 1.08442 1.08435 0.797116 1.09044 0.753065 0.828066 1.0968 0.815438 1.09068 0.759595 1.10318 0.852994 0.809352 1.10336 0.759569 1.10956 1.10932 0.803218 0.76543 1.09695 0.840863 1.09674 1.09696 1.10943 0.840606 0.759338 1.10302 1.10326 1.10313 0.822028 0.765844 1.08415 1.07826 0.815764 1.09067 1.09078 0.771817 0.815394 1.09058 1.08439 1.09706 0.765618 1.07821 0.828285 1.08414 1.0844 0.753221 1.09689 0.821707 1.0969 1.10303 0.747002 0.821664 1.10332 1.10337 1.10946 0.759618 1.09676 1.10334 0.853154 1.09079 0.746725 1.09044 1.1155 0.753249 0.859343 1.09677 0.740379 1.10928 1.12167 0.759601 1.11571 0.846872 1.11543 1.12173 0.759244 0.759546 1.1158 1.1221 1.11562 0.7658 0.747049 0.859317 0.759315 1.10933 0.753359 0.759388 1.10918 0.859374 1.12196 0.765853 0.765729 1.11543 1.11552 0.847054 0.759145 0.76544 1.12202 0.746808 1.12798 1.12795 0.772073 1.12824 0.853295 1.12799 0.753265 1.13452 0.771924 0.73443 1.13459 1.12205 0.83452 0.75329 1.12171 0.765471 0.828078 1.13434 0.759255 1.12835 1.12813 0.771878 1.10943 0.765794 0.828321 0.765517 1.10322 0.759188 1.10924 1.10949 0.771774 0.834172 0.703237 1.11586 1.11558 0.771986 1.10306 0.715688 1.10298 0.840397 0.77801 0.703151 1.11562 0.834336 1.10943 1.12208 0.772085 1.12177 1.12207 1.11585 0.840693 0.728316 1.1221 0.778057 1.12799 1.12807 1.11564 0.784286 1.1279 1.10933 1.11573 0.728203 1.12823 0.840469 0.778147 0.715616 1.07806 1.07178 1.078 1.08436 0.715682 0.834609 0.784504 1.09058 1.07798 1.09039 0.784136 1.07827 0.852876 1.07196 1.078 1.07796 1.09688 0.846817 1.08458 0.740457 1.0908 1.09675 0.846884 1.10294 0.734336 1.0971 0.740858 1.08414 0.846839 0.746816 1.07826 1.08425 0.840792 1.0906 0.746846 1.08448 1.08461 1.08423 1.06543 0.72791 1.06559 0.859327 1.05933 1.05957 1.07182 0.734333 1.072 1.06577 1.07188 0.865811 1.05333 1.04691 0.734212 1.05933 1.05302 0.865452 1.07166 0.740687 1.07187 1.07824 0.746858 1.07791 0.746821 1.07822 1.06539 0.740766 0.746969 1.06547 1.05913 0.77822 1.06562 0.746865 1.05921 0.771743 1.07803 1.07211 0.784208 1.06568 1.10922 0.784156 1.0969 1.09693 1.10332 1.10295 1.09086 1.09074 1.09666 1.10294 1.10325 1.10332 1.10929 1.10945 1.1096 1.11541 1.1155 0.752955 1.11542 0.747 0.759316 0.753265 1.12163 1.10962 1.10947 0.778252 0.746729 1.11575 1.11556 1.10305 0.777895 1.09044 1.08413 0.753311 0.772119 1.0904 1.08423 1.09695 0.765806 1.09087 0.753365 1.09709 1.08425 0.752982 0.759215 1.07194 1.08417 0.784241 1.09043 0.784163 0.759136 0.77197 1.07792 0.753072 1.09708 0.778155 1.10305 1.10945 1.09671 0.759422 0.790464 1.09059 0.796655 1.09692 0.759218 0.796839 1.09062 0.765544 0.79044 1.08449 0.803336 0.759317 1.10289 0.872108 0.796955 1.10957 0.759295 0.802976 0.87827 1.09674 0.790497 0.753303 0.87204 0.790679 1.1029 0.765653 0.79705 0.978321 0.990554 0.872053 0.972014 0.803317 0.978354 0.765496 0.884254 0.98433 0.802905 0.99066 0.984175 0.971844 0.796638 0.878024 0.759577 0.978118 0.790744 0.972051 0.978071 0.765751 0.852941 0.97169 0.759372 0.98446 0.772036 0.978203 0.759423 0.853186 0.984621 0.996692 1.00304 0.765776 0.990771 1.00306 0.997017 0.765793 0.771674 0.990828 0.984601 0.765863 0.990813 0.777941 0.77169 0.765855 0.990389 0.996645 0.771907 0.996906 0.771835 0.997109 0.78421 0.753136 0.752985 0.77791 0.75915 0.946735 0.778166 0.753364 0.771677 0.952953 0.765568 0.765637 0.78451 0.9405 0.784134 0.959469 0.777999 0.747019 0.790756 0.753229 0.784145 0.947022 0.753127 0.790768 0.747059 0.778248 0.953271 0.746861 0.771838 0.778033 0.753192 0.934502 0.759141 0.771731 0.940485 0.746824 0.784326 0.928329 0.784436 0.778205 0.74064 0.828007 0.934573 0.759212 0.834414 0.946702 0.7531 0.934612 0.753077 0.82208 0.75921 0.965779 0.840795 0.746945 0.959517 0.765731 0.840522 0.965436 0.759349 0.834602 0.977911 0.772036 0.971892 0.765668 0.821786 0.759569 0.971974 0.815726 0.76563 0.772038 0.953263 0.765489 0.771838 0.940755 0.771866 0.959204 0.77792 0.953052 0.784475 0.777982 0.952934 0.79043 0.959549 1.02211 0.784418 1.01574 1.00925 1.02803 0.796998 1.01574 1.00331 1.00333 0.790412 0.865482 1.00316 0.778239 1.00957 1.01586 0.778165 1.00924 0.784432 0.88461 0.778058 1.00933 1.03439 1.0221 0.784459 1.04042 0.859276 1.03451 0.790695 1.02816 1.02791 0.790449 0.85942 1.01555 1.02207 0.790568 0.878092 1.0154 0.796784 0.871712 0.796776 1.02194 0.884168 1.02168 0.809499 0.878354 0.984262 0.80303 0.890477 0.765469 0.890425 0.972024 0.903232 0.771671 0.89668 0.984168 0.771712 0.978215 0.765799 0.965675 0.772005 0.884578 0.997091 0.777945 0.990536 0.778229 0.903031 0.990431 0.890578 0.771856 0.978126 0.777882 0.890569 0.965598 0.778288 0.896984 0.778175 0.902911 0.959427 0.922081 0.784587 0.965756 0.909507 0.78422 0.971835 0.909285 0.77163 0.928123 0.959268 0.915785 0.784488 0.971772 0.896718 0.78436 1.0033 0.915778 0.778222 0.996981 0.784516 0.984247 0.903097 0.790584 1.00923 0.90934 0.784246 0.902979 1.00295 0.79084 0.990751 0.790638 0.909624 0.984322 0.790672 0.977935 0.796625 0.915863 0.978089 0.796921 0.927936 0.984245 0.803344 0.990784 0.921764 0.778208 0.971898 0.934151 0.790626 0.921959 0.784587 0.915663 0.940559 0.784429 0.92803 0.796724 0.92821 0.865796 0.79052 0.903071 0.884431 0.796948 0.940556 0.790395 0.865862 0.909289 0.790506 0.871662 0.79054 0.878117 0.921871 0.890474 0.796971 0.897077 0.796809 0.803222 0.890577 0.884529 0.797119 0.903161 0.897116 0.802908 0.89684 0.802955 0.915837 0.815611 0.878083 0.90923 0.809285 0.884205 0.809367 0.87196 0.8782 0.815496 0.903141 0.803257 0.896887 0.909589 0.809208 0.88433 0.890804 0.809592 0.890493 0.947083 0.902934 0.809319 0.903191 0.928279 0.915553 0.815531 0.921747 0.909158 0.915421 0.92823 0.821974 0.92831 0.815505 0.947085 0.921834 0.796898 0.796784 0.909545 0.922117 0.790616 0.934505 0.803106 0.921829 0.797097 0.915745 0.91555 0.80331 0.915432 0.896957 0.922037 0.796941 0.934307 0.809189 0.934573 0.803124 0.921837 0.946856 0.809437 0.953148 0.802998 0.909507 0.809562 0.927961 0.896893 0.81576 0.940489 0.878084 0.80314 0.940526 0.815673 0.959354 0.865652 0.809224 0.928164 0.94041 0.809622 0.934365 0.872083 0.815559 0.93432 0.815875 0.946855 0.865694 0.815814 0.859303 0.822089 0.946644 0.821843 0.959281 0.884219 0.971693 0.828353 0.877933 0.971957 0.822122 0.872023 0.828309 0.953102 0.978161 0.821989 0.927959 0.815535 0.84673 0.934603 0.821773 0.840836 0.828284 0.940465 0.846892 0.821719 0.934285 0.853026 0.827925 0.934212 0.834275 0.853047 0.821676 0.946769 0.846783 0.953118 0.828116 0.890447 0.828164 0.952886 0.827887 0.884203 0.834449 0.959593 0.8846 0.834142 0.959354 0.840788 0.878191 0.959503 0.834374 0.890504 0.96584 0.834209 0.890454 0.946878 0.840392 0.940795 0.834416 0.865758 0.94047 0.840706 0.872115 0.846867 0.953196 0.840838 0.853372 0.947112 0.840817 0.953088 0.859382 0.846855 0.965551 0.852996 0.865699 0.959507 0.965529 0.852893 0.877932 0.965852 0.859625 0.859464 0.971986 0.715851 0.971762 0.871649 0.978334 0.971647 0.965439 0.978138 0.953091 0.703224 0.971925 0.984276 0.971947 0.721837 0.940755 0.984405 0.978055 0.984352 0.990592 0.94682 0.977897 0.728299 0.940384 0.971903 0.709502 0.984487 0.984429 0.928304 0.996858 0.990819 0.715779 0.996707 0.990598 1.0032 0.90935 0.99057 1.00303 0.996785 0.909355 1.0033 0.709364 0.959586 0.728203 0.953069 0.934528 0.959415 0.721677 0.965811 0.921674 0.715779 0.965825 0.915582 0.728002 0.971934 0.72814 0.965592 0.965816 0.746764 0.971976 0.953043 0.740621 0.98414 0.734372 0.990765 0.978274 0.752924 0.946697 0.978029 0.753075 0.990638 0.734168 0.959255 0.996695 0.978323 0.740554 0.984473 0.953016 0.747053 0.984361 0.953243 0.753327 0.977894 0.927885 0.747028 0.984305 0.928035 0.996725 0.934172 1.0031 0.940455 0.997095 0.721689 0.990752 0.934429 1.00932 0.903255 0.728108 0.990732 0.903209 0.990843 0.896698 0.984289 1.00303 1.00309 0.89671 1.00935 0.996766 0.915853 1.00333 0.909595 1.00927 1.00937 1.01567 0.903326 1.01568 0.734543 1.00947 0.884447 0.740448 1.01585 0.740757 1.02205 0.878161 0.740469 1.01559 0.746859 1.02209 0.86563 1.02173 1.02807 0.753242 1.03416 1.02192 0.890685 1.02795 0.746643 1.02818 1.03439 0.884512 1.04081 0.740644 0.871815 0.89678 0.734325 0.927991 0.890781 0.753011 0.921858 0.909526 0.902998 0.903236 0.752929 0.896868 0.915466 0.746669 0.92197 0.903164 0.759409 0.934323 0.921735 0.759226 0.915646 0.909493 0.7655 0.934437 0.765811 0.921937 0.915687 0.927947 0.759343 0.940383 0.902918 0.765542 0.946807 0.896942 0.771674 0.909511 0.771909 0.890444 0.909492 0.759602 0.765569 0.928039 0.87815 0.759321 0.934517 0.909139 0.777881 0.915504 0.915647 0.771932 0.897003 0.784342 0.934193 0.884425 0.940534 0.777939 1.04672 0.947004 1.04038 0.77193 0.959233 0.77819 1.03432 0.946653 0.7782 1.04667 1.05301 0.953349 0.778211 0.952897 0.784418 1.0405 0.947113 0.790651 1.02789 0.94084 0.784344 0.959184 1.03452 0.790649 0.953092 0.784145 0.96553 1.02799 0.95298 0.790454 1.03423 0.784616 0.98415 0.790472 1.04059 0.959419 0.796826 1.04055 0.996876 0.797081 1.05322 0.790714 0.965469 1.05936 0.971969 0.759553 1.04706 0.972026 0.753293 1.05298 0.765458 1.05915 0.959232 1.06553 0.765823 0.971814 1.05333 0.965867 0.777881 0.977918 0.765726 1.04671 0.778357 0.75934 1.02809 0.96582 0.765657 0.827908 1.04664 0.778113 0.984255 0.772011 1.05306 0.840761 0.978174 0.784416 1.04068 0.828253 0.990445 0.990499 1.03438 0.834518 0.77181 0.978344 0.834433 1.01557 0.790422 0.984589 0.997095 0.996996 0.840744 0.796902 0.927993 1.00914 0.853098 0.790668 0.921823 1.02171 0.846726 0.797104 0.922081 1.00324 0.803063 0.846897 0.940683 1.01553 0.784189 0.92834 1.00954 0.859549 0.790824 0.934573 0.997121 0.80313 0.853313 0.946819 0.99665 0.79707 0.978021 0.859236 0.796938 0.959592 0.990541 0.80321 0.846962 0.965593 1.00337 0.953242 0.85322 1.00335 0.95331 0.84068 0.97211 0.984457 0.965622 0.853101 1.02176 0.959381 1.02826 0.85948 0.934296 0.940473 1.01551 0.859204 0.965728 1.04071 0.821893 0.728308 0.940686 1.03448 0.821923 1.02173 0.947089 0.815579 0.715494 1.00915 0.959547 0.840563 0.734292 1.0096 0.946706 0.971772 0.740745 0.828237 0.990509 0.990527 0.734152 1.02207 0.834217 0.978181 0.753021 0.828246 0.971718 1.01558 0.747065 0.821834 0.990384 1.07791 0.828256 0.984506 1.05934 0.765568 0.822015 0.971675 1.07199 0.834202 0.759167 0.984512 1.08427 0.828068 0.990418 1.06582 0.834298 0.765551 0.977915 1.05917 0.752905 0.846958 0.996769 1.05333 0.746965 0.990739 0.846627 1.0468 0.759242 0.996958 1.0717 0.765623 1.00305 0.840444 1.06542 1.00302 0.752919 0.852991 1.0596 1.02201 0.852921 1.0593 0.75914 0.846698 1.09058 0.709371 1.0093 1.07821 0.978294 0.721787 0.840657 1.07825 0.990668 0.703239 0.846686 0.996653 1.07163 0.728143 0.840659 1.09669 0.984266 0.734149 1.09076 0.996703 0.846699 0.727947 1.08434 1.0092 1.07199 0.853361 0.709276 1.00322 1.06581 0.853202 1.07807 0.703344 1.0094 1.08439 0.852994 0.715409 1.01574 1.07208 1.01547 1.04665 0.703292 0.871664 1.02788 1.03427 1.02173 0.865399 0.721658 1.0408 1.00327 0.871752 0.721947 1.05305 0.990715 0.878357 1.04684 0.728303 1.00308 0.877938 1.02834 1.00303 0.715789 0.884339 1.00925 1.02203 0.740793 0.878225 1.00918 1.0343 0.997084 0.871703 0.746785 1.02802 1.00288 0.740392 0.86563 1.02212 0.746684 1.0095 1.05308 0.865503 1.01581 0.753041 1.06585 1.01545 0.878223 0.759297 1.0468 1.01539 0.871738 0.765694 1.07194 1.0092 0.878292 1.05953 0.740587 1.02184 0.890579 1.04063 0.734523 1.01582 0.884577 1.02834 0.734589 1.01556 0.890494 1.0346 0.890539 0.896845 1.02163 0.753252 1.02793 0.884185 1.02169 1.0529 0.753162 0.89053 1.02814 1.04039 0.759577 0.884405 1.02826 1.03448 0.897047 1.02827 0.74688 0.965426 1.0344 0.897109 1.03456 0.778042 0.8971 0.965571 0.890446 1.01574 0.97833 0.77209 0.859211 1.02821 0.971765 0.772061 0.865429 1.04077 0.946788 0.859146 1.02212 0.953362 0.865543 0.940436 1.02208 0.940598 0.871918 1.04698 0.95962 0.865434 1.03428 0.96578 1.0406 0.87189 0.959233 1.03449 0.859185 0.946719 0.984135 1.04676 0.859373 1.04685 0.978175 0.865789 1.05324 1.04704 0.990768 0.871783 1.03454 0.865565 0.996728 1.04062 0.871788 1.05317 0.884504 0.878276 0.98461 0.878348 1.04062 0.890784 0.990526 0.890439 0.971965 1.04699 0.884461 0.965514 1.05332 0.87829 1.05914 0.953346 0.884175 1.05918 1.05306 0.978329 0.878089 1.05956 0.959197 0.890474 1.06564 0.972088 0.884294 0.928294 1.06576 0.89085 0.921921 0.934612 0.815485 1.02811 0.927946 0.809623 1.02807 0.778304 0.902992 1.04045 0.915779 0.809424 1.00937 0.777938 0.809568 0.896666 1.03416 0.821995 0.784162 0.822009 1.04084 0.890656 0.784178 0.81542 1.03444 0.921643 0.815498 0.771945 1.04085 0.809166 0.909227 1.04054 0.771713 0.809212 1.04673 0.815437 0.902942 0.765409 1.05309 0.822016 0.947101 0.790508 1.05304 0.947007 0.81558 0.784126 0.934196 0.822074 1.02172 0.940516 0.790566 1.02833 0.83454 0.952978 0.778156 1.05337 0.940465 0.84062 0.796677 0.827975 1.04677 0.790731 0.828331 1.02805 0.928154 0.790476 1.03455 0.803024 0.915469 0.847122 1.03419 0.809408 0.840448 0.909185 0.803169 0.834279 1.0407 0.834556 0.815794 0.934558 1.05325 0.828027 0.81581 1.04682 0.83446 0.921868 1.05946 0.796695 0.827903 0.915761 0.802964 1.05962 0.840625 0.796948 1.00333 1.05932 0.840737 0.809234 0.997042 0.815623 1.06565 0.996923 0.83424 0.809568 1.07189 1.00297 0.809422 0.771903 1.05961 1.0157 0.802993 0.777991 1.04704 1.00922 0.796869 0.759193 1.00918 0.822008 1.06542 0.984528 1.06571 0.809292 0.777987 0.978057 1.05916 0.809379 0.784245 1.00334 0.802992 1.07795 0.796871 0.990501 0.790421 0.797023 0.984447 1.07195 0.790636 0.790639 1.07185 0.784316 1.02169 0.790819 0.802955 1.07197 1.01577 0.772002 0.809292 1.07835 1.02798 1.07797 1.02172 0.809296 0.765396 1.07809 1.01566 0.803163 1.06571 0.815756 0.778187 0.996968 0.821724 1.07209 1.00926 0.771826 0.82187 1.07182 0.990642 0.834578 1.07837 1.00955 0.784499 0.834484 1.08416 1.00326 0.828227 1.08433 0.790649 0.81584 0.996922 1.08418 0.815661 1.00298 0.797 1.09066 0.828152 0.965759 0.803173 1.09065 0.821816 1.09685 0.797086 0.822012 0.959447 1.10294 0.853306 0.803067 0.946882 0.859343 1.09073 0.809598 0.984157 0.971871 0.99083 0.997027 0.846769 0.809162 0.997065 0.953278 0.990821 0.996856 1.00293 0.865828 0.997065 0.79672 0.965504 1.00314 1.00293 0.865861 1.00918 0.940381 1.00301 0.802995 1.00925 0.859255 1.01577 0.928155 1.00947 1.00317 0.922069 0.846921 0.79692 0.947056 0.846627 1.0094 0.934348 1.00962 0.809372 1.01549 0.928333 0.840619 1.00952 1.01577 0.971871 1.01577 1.02832 0.853124 1.02196 0.82175 1.02203 1.01574 0.971717