# vtk DataFile Version 3.0
vtk output
ASCII
DATASET UNSTRUCTURED_GRID
POINTS 44494 float
0.00486225 0 0
0.0193661 0 0
0.0180775 0.00951617 0
0.0142498 0.0136846 0
0.011145 0.0136309 0
0.00486225 0 0
0 0 0
0.00486225 0 0
0.011145 0.0136309 0
0.0087707 0.0157881 0
0 0.0169865 0
0 0 0
0.0142498 0.0136846 0
0.0180775 0.00951617 0
0.031634 0.0130178 0
0.031757 0.0132139 0
0.0253831 0.022832 0
0.0212949 0.0223841 0
0.0142498 0.0136846 0
0.0180775 0.00951617 0
0.0193661 0 0
0.029941 0 0
0.031634 0.0130178 0
0.0180775 0.00951617 0
0.0087707 0.0157881 0
0.011145 0.0136309 0
0.0142498 0.0136846 0
0.0212949 0.0223841 0
0.0122038 0.0313932 0
0.0100788 0.0302576 0
0.0087707 0.0157881 0
0 0.0169865 0
0.0087707 0.0157881 0
0.0100788 0.0302576 0
0 0.0311819 0
0 0.0169865 0
0.0122038 0.0313932 0
0.0212949 0.0223841 0
0.0253831 0.022832 0
0.0283488 0.0274221 0
0.0236124 0.0359101 0
0.0133247 0.0342308 0
0.0122038 0.0313932 0
0.029941 0 0
0.0431729 0 0
0.0428383 0.00718866 0
0.0339563 0.0135636 0
0.031757 0.0132139 0
0.031634 0.0130178 0
0.029941 0 0
0.0394929 0.0203521 0
0.0339563 0.0135636 0
0.0428383 0.00718866 0
0.050675 0.0136399 0
0.0457523 0.0212058 0
0.0394929 0.0203521 0
0.0521817 0.0134016 0
0.0573284 0 0
0.0634984 0 0
0.0616694 0.0181846 0
0.0606975 0.0183718 0
0.0521817 0.0134016 0
0.387881 0.399503 0
0.391102 0.398371 0
0.397909 0.402252 0
0.399193 0.408254 0
0.390632 0.415332 0
0.383867 0.411382 0
0.387881 0.399503 0
0.831514 0.38055 0
0.843047 0.381296 0
0.845656 0.386106 0
0.84407 0.391127 0
0.832751 0.393132 0
0.830285 0.39087 0
0.831514 0.38055 0
0.0428383 0.00718866 0
0.0431729 0 0
0.0573284 0 0
0.0521817 0.0134016 0
0.050675 0.0136399 0
0.0428383 0.00718866 0
0.373467 0.400169 0
0.378771 0.395717 0
0.387881 0.399503 0
0.383867 0.411382 0
0.379819 0.412218 0
0.374544 0.409121 0
0.373467 0.400169 0
0.393051 0.38899 0
0.39974 0.386139 0
0.404894 0.389242 0
0.406125 0.39615 0
0.397909 0.402252 0
0.391102 0.398371 0
0.393051 0.38899 0
0.812782 0.411493 0
0.808316 0.402232 0
0.809448 0.399386 0
0.819493 0.397411 0
0.824328 0.405452 0
0.81783 0.412125 0
0.812782 0.411493 0
0.36688 0.973244 0
0.371299 0.971803 0
0.380173 0.977935 0
0.380154 0.983702 0
0.377027 0.986723 0
0.36675 0.98686 0
0.365969 0.986103 0
0.36688 0.973244 0
0.0432427 0.034665 0
0.0397474 0.0351337 0
0.0347607 0.0292615 0
0.0394929 0.0203521 0
0.0457523 0.0212058 0
0.0491559 0.0279334 0
0.0432427 0.034665 0
0.353487 0.974333 0
0.36255 0.971444 0
0.36688 0.973244 0
0.365969 0.986103 0
0.35345 0.985204 0
0.353487 0.974333 0
0.406125 0.39615 0
0.41268 0.399752 0
0.413755 0.405864 0
0.40584 0.412311 0
0.399193 0.408254 0
0.397909 0.402252 0
0.406125 0.39615 0
0.0253831 0.022832 0
0.031757 0.0132139 0
0.0339563 0.0135636 0
0.0394929 0.0203521 0
0.0347607 0.0292615 0
0.0283488 0.0274221 0
0.0253831 0.022832 0
0.340646 0.992199 0
0.343288 0.986826 0
0.352976 0.985724 0
0.354553 1 0
0.341148 1 0
0.340646 0.992199 0
0.821696 0.392696 0
0.830285 0.39087 0
0.832751 0.393132 0
0.833025 0.403101 0
0.829806 0.406018 0
0.824328 0.405452 0
0.819493 0.397411 0
0.821696 0.392696 0
0.352976 0.985724 0
0.35345 0.985204 0
0.365969 0.986103 0
0.36675 0.98686 0
0.364334 1 0
0.354553 1 0
0.352976 0.985724 0
0.0544797 0.027993 0
0.0606975 0.0183718 0
0.0616694 0.0181846 0
0.0648533 0.0190203 0
0.0686097 0.0255013 0
0.0658736 0.0320705 0
0.0586307 0.0329035 0
0.0544797 0.027993 0
0.399642 0.377617 0
0.40767 0.373027 0
0.413318 0.377438 0
0.413924 0.383837 0
0.404894 0.389242 0
0.39974 0.386139 0
0.399642 0.377617 0
0.36675 0.98686 0
0.377027 0.986723 0
0.379695 1 0
0.364334 1 0
0.36675 0.98686 0
0.832751 0.393132 0
0.84407 0.391127 0
0.847405 0.397773 0
0.8439 0.404549 0
0.833025 0.403101 0
0.832751 0.393132 0
0.0457523 0.0212058 0
0.050675 0.0136399 0
0.0521817 0.0134016 0
0.0606975 0.0183718 0
0.0544797 0.027993 0
0.0491559 0.0279334 0
0.0457523 0.0212058 0
0.847405 0.397773 0
0.84407 0.391127 0
0.845656 0.386106 0
0.856022 0.384845 0
0.859184 0.394632 0
0.856474 0.397731 0
0.847405 0.397773 0
0.0432427 0.034665 0
0.0491559 0.0279334 0
0.0544797 0.027993 0
0.0586307 0.0329035 0
0.0562019 0.0401943 0
0.0504685 0.0410966 0
0.0432427 0.034665 0
0.413318 0.377438 0
0.423277 0.371636 0
0.429488 0.377644 0
0.429847 0.380194 0
0.419769 0.38788 0
0.413924 0.383837 0
0.413318 0.377438 0
0.38475 0.872079 0
0.393787 0.876104 0
0.389651 0.888962 0
0.380953 0.886241 0
0.377542 0.877036 0
0.38475 0.872079 0
0 0.0311819 0
0.0100788 0.0302576 0
0.0122038 0.0313932 0
0.0133247 0.0342308 0
0.010652 0.0419818 0
0 0.0417148 0
0 0.0311819 0
0.858599 0.380612 0
0.856022 0.384845 0
0.845656 0.386106 0
0.843047 0.381296 0
0.846065 0.373502 0
0.852621 0.371938 0
0.858599 0.380612 0
0.420854 0.393386 0
0.419769 0.38788 0
0.429847 0.380194 0
0.4354 0.385231 0
0.43543 0.390775 0
0.42672 0.396759 0
0.420854 0.393386 0
0 0.0417148 0
0.010652 0.0419818 0
0.0110301 0.0426404 0
0.01086 0.0538987 0
0 0.0546139 0
0 0.0417148 0
0.393787 0.876104 0
0.397309 0.87506 0
0.402714 0.877958 0
0.401852 0.891533 0
0.399835 0.892888 0
0.391871 0.892326 0
0.389651 0.888962 0
0.393787 0.876104 0
0.413755 0.405864 0
0.41268 0.399752 0
0.420854 0.393386 0
0.42672 0.396759 0
0.428194 0.403459 0
0.421079 0.409809 0
0.413755 0.405864 0
0.01086 0.0538987 0
0.0110301 0.0426404 0
0.0240047 0.0466815 0
0.0190582 0.0572944 0
0.014699 0.0579852 0
0.01086 0.0538987 0
0.862999 0.37982 0
0.86718 0.372348 0
0.877508 0.373861 0
0.879248 0.376377 0
0.874127 0.385982 0
0.870747 0.386699 0
0.862999 0.37982 0
0.404894 0.389242 0
0.413924 0.383837 0
0.419769 0.38788 0
0.420854 0.393386 0
0.41268 0.399752 0
0.406125 0.39615 0
0.404894 0.389242 0
0.010652 0.0419818 0
0.0133247 0.0342308 0
0.0236124 0.0359101 0
0.0267266 0.0417976 0
0.0259536 0.0456275 0
0.0240047 0.0466815 0
0.0110301 0.0426404 0
0.010652 0.0419818 0
0.856022 0.384845 0
0.858599 0.380612 0
0.862999 0.37982 0
0.870747 0.386699 0
0.86641 0.394677 0
0.859184 0.394632 0
0.856022 0.384845 0
0.380953 0.886241 0
0.389651 0.888962 0
0.391871 0.892326 0
0.387321 0.900683 0
0.379461 0.901329 0
0.374306 0.893513 0
0.380953 0.886241 0
0.0347607 0.0292615 0
0.0397474 0.0351337 0
0.0388471 0.0365831 0
0.0267266 0.0417976 0
0.0236124 0.0359101 0
0.0283488 0.0274221 0
0.0347607 0.0292615 0
0.42672 0.396759 0
0.43543 0.390775 0
0.44282 0.397183 0
0.443071 0.40048 0
0.435654 0.406777 0
0.428194 0.403459 0
0.42672 0.396759 0
0.845011 0.407414 0
0.8439 0.404549 0
0.847405 0.397773 0
0.856474 0.397731 0
0.859164 0.408835 0
0.856866 0.411741 0
0.845011 0.407414 0
0 0.0546139 0
0.01086 0.0538987 0
0.014699 0.0579852 0
0.0125313 0.0635452 0
0 0.0653932 0
0 0.0546139 0
0.383867 0.411382 0
0.390632 0.415332 0
0.39201 0.421072 0
0.38469 0.427851 0
0.376943 0.423793 0
0.379819 0.412218 0
0.383867 0.411382 0
0.859184 0.394632 0
0.86641 0.394677 0
0.870395 0.400524 0
0.867895 0.407804 0
0.859164 0.408835 0
0.856474 0.397731 0
0.859184 0.394632 0
0.391871 0.892326 0
0.399835 0.892888 0
0.401774 0.907674 0
0.392629 0.909124 0
0.387321 0.900683 0
0.391871 0.892326 0
0.0190582 0.0572944 0
0.0240047 0.0466815 0
0.0259536 0.0456275 0
0.0342482 0.0523464 0
0.0268153 0.0622385 0
0.0190582 0.0572944 0
0.390632 0.415332 0
0.399193 0.408254 0
0.40584 0.412311 0
0.406671 0.417601 0
0.399154 0.424523 0
0.39201 0.421072 0
0.390632 0.415332 0
0.81783 0.412125 0
0.824328 0.405452 0
0.829806 0.406018 0
0.83255 0.415802 0
0.828533 0.420365 0
0.821974 0.420304 0
0.81783 0.412125 0
0.0159339 0.0722211 0
0.0125313 0.0635452 0
0.014699 0.0579852 0
0.0190582 0.0572944 0
0.0268153 0.0622385 0
0.0271248 0.0633292 0
0.0187504 0.0721378 0
0.0159339 0.0722211 0
0.420455 0.868799 0
0.427117 0.874298 0
0.427451 0.876797 0
0.42156 0.883747 0
0.416669 0.884439 0
0.410365 0.876117 0
0.413277 0.870002 0
0.420455 0.868799 0
0.806411 0.418099 0
0.812782 0.411493 0
0.81783 0.412125 0
0.821974 0.420304 0
0.81762 0.426041 0
0.809514 0.425463 0
0.806411 0.418099 0
0.371488 0.436457 0
0.371642 0.425639 0
0.376943 0.423793 0
0.38469 0.427851 0
0.385756 0.434245 0
0.375491 0.439997 0
0.371488 0.436457 0
0.0267266 0.0417976 0
0.0388471 0.0365831 0
0.0391443 0.0498192 0
0.0358083 0.052267 0
0.0342482 0.0523464 0
0.0259536 0.0456275 0
0.0267266 0.0417976 0
0.402714 0.877958 0
0.410365 0.876117 0
0.416669 0.884439 0
0.412043 0.892195 0
0.401852 0.891533 0
0.402714 0.877958 0
0.829806 0.406018 0
0.833025 0.403101 0
0.8439 0.404549 0
0.845011 0.407414 0
0.840824 0.416999 0
0.83255 0.415802 0
0.829806 0.406018 0
0.38469 0.427851 0
0.39201 0.421072 0
0.399154 0.424523 0
0.400362 0.429796 0
0.391249 0.43785 0
0.385756 0.434245 0
0.38469 0.427851 0
0.0388471 0.0365831 0
0.0397474 0.0351337 0
0.0432427 0.034665 0
0.0504685 0.0410966 0
0.0470684 0.0502133 0
0.0391443 0.0498192 0
0.0388471 0.0365831 0
0.83255 0.415802 0
0.840824 0.416999 0
0.844033 0.421989 0
0.838587 0.429996 0
0.832835 0.430552 0
0.828533 0.420365 0
0.83255 0.415802 0
0.391249 0.43785 0
0.400362 0.429796 0
0.407587 0.434134 0
0.408337 0.438522 0
0.400693 0.446026 0
0.392257 0.441429 0
0.391249 0.43785 0
0.0470684 0.0502133 0
0.0504685 0.0410966 0
0.0562019 0.0401943 0
0.0622249 0.0463519 0
0.0540295 0.0546953 0
0.0501123 0.0537285 0
0.0470684 0.0502133 0
0.427117 0.874298 0
0.436759 0.866004 0
0.444807 0.872125 0
0.444902 0.876206 0
0.437975 0.882895 0
0.427451 0.876797 0
0.427117 0.874298 0
0.809514 0.425463 0
0.81762 0.426041 0
0.821013 0.43415 0
0.817282 0.439202 0
0.809179 0.438624 0
0.805386 0.431289 0
0.809514 0.425463 0
0.413755 0.405864 0
0.421079 0.409809 0
0.422042 0.415061 0
0.414163 0.421867 0
0.406671 0.417601 0
0.40584 0.412311 0
0.413755 0.405864 0
0.0358083 0.052267 0
0.0391443 0.0498192 0
0.0470684 0.0502133 0
0.0501123 0.0537285 0
0.0422453 0.0668366 0
0.0417705 0.0666938 0
0.0358083 0.052267 0
0.821974 0.420304 0
0.828533 0.420365 0
0.832835 0.430552 0
0.829909 0.433893 0
0.821013 0.43415 0
0.81762 0.426041 0
0.821974 0.420304 0
0.427451 0.876797 0
0.437975 0.882895 0
0.438268 0.887616 0
0.432493 0.894652 0
0.429981 0.89483 0
0.42156 0.883747 0
0.427451 0.876797 0
[...]
CELL_DATA 6400
FIELD FieldData 3
weight 1 6400 float
 0.0524063 0.0523379 0.0525199 0.0525217 0.052454 0.0523913 0.0525402 0.0526234 0.0527167 0.05284 0.0550244 0.0539226 0.0527551 0.0550039 0.0550631 0.0540421 0.0503055 0.0527181 0.0502705 0.0550634 0.0526384 0.0500427 0.0539758 0.0501036 0.0529002 0.0551072 0.050138 0.0538925 0.0528035 0.0538024 0.0528313 0.055143 0.0515419 0.0524097 0.053829 0.0551392 0.0524678 0.0515286 0.055098 0.0525699 0.0536846 0.0551029 0.0525616 0.0537217 0.0513824 0.0526412 0.0551305 0.0537813 0.0525075 0.0549769 0.0536961 0.0513302 0.052661 0.0550208 0.0539584 0.052625 0.0516562 0.0540189 0.0549245 0.0527037 0.0515512 0.0538805 0.0549703 0.0527927 0.0538602 0.0549614 0.0528992 0.0517292 0.0539814 0.0550583 0.0528321 0.0539221 0.0515888 0.055088 0.053805 0.0527543 0.0550137 0.051503 0.0537915 0.0529117 0.0550004 0.0536972 0.0513891 0.0529884 0.0550316 0.0536532 0.0512161 0.0529754 0.0550464 0.0537605 0.0511626 0.0529084 0.0551642 0.0536522 0.0529894 0.050943 0.0551856 0.0535656 0.053114 0.051056 0.0551114 0.0530597 0.0542041 0.055155 0.0530244 0.0509503 0.0551383 0.0542325 0.0551707 0.0513651 0.0530958 0.0541164 0.0512299 0.0531512 0.055199 0.0551812 0.0541532 0.0531813 0.0513894 0.0532055 0.0511818 0.054143 0.0552061 0.0533797 0.0510267 0.0542284 0.0551468 0.0532745 0.0510767 0.0532408 0.0540153 0.0551796 0.0533148 0.0511112 0.0540744 0.0551477 0.0532658 0.0539975 0.0516327 0.0550703 0.0533857 0.0550893 0.0540156 0.0517339 0.0551144 0.0529493 0.0539422 0.051501 0.0550421 0.0530479 0.0541238 0.0550671 0.0531047 0.0514934 0.0551077 0.0532115 0.051577 0.0540163 0.0551197 0.0530748 0.0517683 0.0540546 0.0550414 0.0531668 0.053235 0.0516884 0.0550498 0.0539282 0.0531388 0.0550858 0.051684 0.0539317 0.0532856 0.0549051 0.0515984 0.0533536 0.0538494 0.0549051 0.051554 0.0548471 0.0538482 0.0534338 0.0548545 0.0533193 0.053842 0.0515329 0.0548855 0.0533745 0.0513701 0.0539223 0.0549457 0.0512851 0.0534531 0.0549762 0.0537397 0.051322 0.0525649 0.0549592 0.053851 0.0525515 0.051198 0.0548547 0.0526612 0.054915 0.0539447 0.0511337 0.0549042 0.0527079 0.053878 0.0514496 0.0547902 0.05258 0.0537482 0.0514234 0.0527003 0.0547528 0.053902 0.0513663 0.0538194 0.0548218 0.0527706 0.0547819 0.0512305 0.0537509 0.0527884 0.0547129 0.0537105 0.0528187 0.0512194 0.05359 0.051201 0.0529356 0.0547235 0.0548511 0.0507389 0.0535344 0.0530112 0.0548786 0.0508639 0.0536371 0.0528909 0.0548192 0.0507816 0.0536434 0.0529671 0.0547899 0.0506233 0.0530912 0.0535227 0.0547568 0.0506188 0.0538556 0.0530118 0.054787 0.0509094 0.0526117 0.0537546 0.0527295 0.055011 0.0509176 0.0537199 0.052842 0.0549861 0.0507262 0.0526997 0.0537409 0.0549977 0.0507604 0.0526485 0.055029 0.0536318 0.0506316 0.0528937 0.054934 0.05053 0.0536732 0.0549514 0.0527678 0.0503663 0.0550051 0.0528592 0.0535752 0.050475 0.0530839 0.053624 0.0550131 0.0504287 0.0530027 0.0534529 0.0502076 0.0549629 0.0529622 0.0535379 0.0502814 0.0549682 0.0502068 0.0530034 0.0549036 0.0534415 0.0505048 0.0549161 0.0530905 0.0535163 0.0548672 0.050577 0.0530914 0.0548467 0.0535255 0.0504688 0.053176 0.0548149 0.0502751 0.0533767 0.0532618 0.0502884 0.0531865 0.054825 0.0536344 0.050968 0.0532754 0.054926 0.0535976 0.0533198 0.0548765 0.0510592 0.0534119 0.0535301 0.0549257 0.0507662 0.0534272 0.0534815 0.0507997 0.0548346 0.0548818 0.050863 0.053396 0.0535391 0.0533548 0.0510466 0.0535958 0.0534308 0.0509438 0.0548406 0.0534643 0.0534936 0.0509297 0.0534419 0.0547626 0.0532642 0.0547372 0.0533081 0.0510648 0.0531834 0.0547623 0.0532802 0.0508075 0.0532157 0.0547335 0.0533596 0.0533418 0.0507534 0.054794 0.05334 0.0531725 0.0506191 0.0547856 0.0532107 0.0505635 0.0532505 0.0547834 0.0503339 0.0532449 0.0533512 0.0547629 0.0503423 0.0535024 0.053364 0.0547078 0.050494 0.0547232 0.053551 0.0534396 0.0503307 0.054743 0.053397 0.0547221 0.0535209 0.0505858 0.0547008 0.0534375 0.0507127 0.0535326 0.0547928 0.0505975 0.053462 0.0547695 0.0534328 0.0503604 0.0532915 0.0547596 0.0504543 0.0532297 0.0535957 0.050419 0.0533346 0.0548897 0.0535228 0.0530952 0.0534468 0.0548363 0.0548059 0.0532212 0.0548753 0.0533779 0.0535195 0.054873 0.0532982 0.0547621 0.0535253 0.0548187 0.0531526 0.0535928 0.0549406 0.0548021 0.0530959 0.0534652 0.0549561 0.0531202 0.0534699 0.0547187 0.0549364 0.053614 0.0548582 0.0547591 0.0531188 0.0535447 0.0548131 0.0535918 0.0529829 0.0547107 0.0536682 0.0548486 0.0530056 0.0547072 0.0537517 0.0549137 0.0531162 0.0537304 0.0547688 0.0548915 0.0536713 0.0529109 0.05491 0.054745 0.0536801 0.053019 0.0546658 0.0537497 0.0547227 0.0529022 0.0546926 0.0538064 0.0546551 0.054701 0.0528326 0.0546663 0.0535222 0.0527316 0.0546857 0.0547221 0.0527971 0.0535071 0.0546779 0.0547365 0.0528392 0.0536616 0.0546974 0.0546331 0.0528355 0.0535917 0.0546807 0.0546455 0.0527827 0.0546288 0.0535508 0.0526983 0.0545773 0.0546301 0.0535885 0.0529976 0.0545907 0.0546306 0.0536878 0.0529115 0.0546627 0.0545757 0.0536623 0.0529055 0.0545973 0.0546993 0.0537242 0.0546549 0.0546175 0.0529935 0.0537903 0.0545784 0.0528796 0.0546449 0.0546378 0.0538444 0.0528287 0.054662 0.0545276 0.0538038 0.0545945 0.0528292 0.0545357 0.05375 0.0547728 0.0527774 0.0537386 0.0547014 0.0527455 0.0547942 0.0538323 0.0526857 0.0548108 0.0546781 0.0526586 0.0538251 0.0546411 0.0549023 0.0527105 0.0538787 0.0538145 0.0527417 0.0546643 0.0548478 0.0538872 0.0525811 0.0546277 0.0548168 0.0539624 0.0546017 0.0526338 0.0548686 0.0538737 0.0547573 0.0533696 0.053953 0.0546339 0.054718 0.0539428 0.0546139 0.0534558 0.0546962 0.053966 0.0547668 0.0545634 0.0533684 0.0540321 0.0548154 0.0532634 0.0545406 0.0540985 0.0540252 0.0545664 0.0534047 0.0547433 0.054088 0.0533092 0.0550091 0.0544965 0.0540172 0.0531972 0.0545665 0.0540807 0.0549782 0.0532554 0.0545345 0.0540213 0.053154 0.0549771 0.0545131 0.054094 0.054995 0.0530148 0.0544962 0.0539278 0.0530691 0.0544237 0.055033 0.0538586 0.0544898 0.0531482 0.0550388 0.0544767 0.0540049 0.0529459 0.0550137 0.0544302 0.0539067 0.0530305 0.0549632 0.0544098 0.0539204 0.0549802 0.052915 0.0539822 0.05495 0.0545192 0.0533301 0.0539926 0.0549441 0.0545179 0.0540771 0.0550098 0.0533385 0.0545153 0.0550129 0.0541479 0.0531144 0.0550052 0.0544051 0.0541507 0.053224 0.0549814 0.0544649 0.054057 0.0532084 0.0544414 0.0550473 0.0541434 0.0544591 0.0550486 0.0532432 0.0544702 0.0550272 0.0542086 0.0544016 0.0530979 0.0541529 0.054388 0.0530974 0.0550588 0.0536291 0.0543977 0.0530299 0.0550548 0.0543321 0.0535519 0.0550523 0.0528664 0.0536354 0.0543272 0.0529997 0.0550607 0.0537324 0.055025 0.0543728 0.0529968 0.0535796 0.0550383 0.0542895 0.0536609 0.055016 0.0527985 0.0542516 0.0537037 0.0550472 0.0529254 0.0538093 0.0541939 0.0550339 0.0528989 0.0538273 0.0542036 0.0550231 0.0527231 0.0538845 0.054306 0.0549265 0.05432 0.0539073 0.0549157 0.0527861 0.0542447 0.054863 0.0537844 0.0528369 0.0542416 0.0549556 0.0538601 0.0527911 0.0549843 0.0541632 0.0539362 0.0526547 0.0549413 0.0544723 0.0536052 0.0526738 0.0544 0.0548647 0.0536974 0.0526159 0.0544462 0.0537801 0.0548016 0.0525297 0.0543563 0.0537446 0.0525522 0.0548594 0.0543308 0.053676 0.0549113 0.0543328 0.0525723 0.0549321 0.0543529 0.0524876 0.0536455 0.0549009 0.0524744 0.0542742 0.0550006 0.0538262 0.0526955 0.054972 0.0543436 0.0537525 0.0549536 0.0527832 0.0542609 0.0538244 0.0549817 0.0525738 0.0542864 0.0539028 0.055008 0.0542004 0.0527101 0.0539736 0.0550129 0.0542564 0.0538648 0.0526243 0.0549808 0.0542488 0.0539395 0.054913 0.0541739 0.0525194 0.0540174 0.0548974 0.0541031 0.0525491 0.0539812 0.0548872 0.0541589 0.0524168 0.0540419 0.0549478 0.0541895 0.0523981 0.0540555 0.054956 0.0541167 0.0524431 0.0539634 0.0549229 0.0523006 0.0540887 0.0540397 0.0545671 0.0541177 0.0541848 0.0522414 0.0545276 0.054119 0.0540616 0.0544915 0.052467 0.0541327 0.0541081 0.0545299 0.0523419 0.0545802 0.0542297 0.0539865 0.0521831 0.0545743 0.0542122 0.0545761 0.0545383 0.0522533 0.0542054 0.0545304 0.0545186 0.0544835 0.0523796 0.0544453 0.0542878 0.0523812 0.0545747 0.0543705 0.054103 0.0544351 0.052508 0.0545099 0.0540163 0.0544746 0.0540529 0.0527613 0.0545004 0.0544838 0.0541819 0.052648 0.0544234 0.054423 0.0544297 0.0526899 0.054436 0.0541064 0.0546281 0.0541362 0.0543952 0.0525004 0.0546774 0.0541993 0.0525893 0.0546098 0.0521258 0.0544744 0.054256 0.0546882 0.05209 0.0543708 0.054275 0.054751 0.0544476 0.0522298 0.0546827 0.0543376 0.0543489 0.0522027 0.0546324 0.0542232 0.0520148 0.0544218 0.0545492 0.0542965 0.0521133 0.0544973 0.0544123 0.054596 0.05219 0.0543478 0.0543419 0.0545671 0.0523969 0.0527278 0.0543333 0.0545074 0.0542407 0.0527772 0.052551 0.0543656 0.054332 0.0543173 0.0524537 0.0528817 0.0543368 0.0543187 0.0528029 0.0542548 0.0542498 0.0523016 0.0527417 0.0542889 0.0543486 0.052385 0.0542568 0.0528442 0.0542746 0.0541924 0.052453 0.0529242 0.0543094 0.0542357 0.0541428 0.0529682 0.0528751 0.0542218 0.0530758 0.0543425 0.0541672 0.0529284 0.0541782 0.0531255 0.0542802 0.054109 0.0529928 0.0530216 0.0543098 0.0542387 0.0531106 0.0527387 0.0542477 0.054209 0.0531692 0.052844 0.0541512 0.0541405 0.0528517 0.0528095 0.052779 0.0544305 0.054191 0.052942 0.0530775 0.0543741 0.0528108 0.0544001 0.0541518 0.0531522 0.0528736 0.0543431 0.0542108 0.0529528 0.0544471 0.0532426 0.054115 0.0529739 0.0544601 0.0530485 0.0530461 0.054062 0.0545078 0.0532525 0.0529959 0.0544018 0.0542348 0.0532124 0.053135 0.0542692 0.0531576 0.0541899 0.0526871 0.054131 0.0531348 0.0542413 0.052702 0.0530808 0.0541143 0.0541688 0.0530498 0.0526026 0.0540701 0.0543136 0.0540795 0.0532648 0.0525966 0.0543667 0.0540493 0.0531925 0.0527334 0.0542747 0.0532253 0.0540036 0.0527457 0.0547925 0.0533111 0.0539794 0.0528637 0.0548134 0.0539605 0.0533571 0.0529215 0.05475 0.053931 0.0534372 0.0547222 0.0531372 0.0542553 0.053269 0.0548459 0.0530015 0.0533568 0.0542411 0.0548196 0.0530218 0.0534001 0.054178 0.0547736 0.0528636 0.0535358 0.0540785 0.054653 0.0546302 0.0541556 0.0529226 0.0535161 0.0541479 0.0545707 0.0520058 0.054148 0.0546693 0.053593 0.0519218 0.0547377 0.0540507 0.0521177 0.0534753 0.0546974 0.0540611 0.0520766 0.0540556 0.0535797 0.0546064 0.0519306 0.0539631 0.0536527 0.0546364 0.0518102 0.0548621 0.0539627 0.0520349 0.0547938 0.0536142 0.0519903 0.0548371 0.0540943 0.0533025 0.0523084 0.0539905 0.0548726 0.0533804 0.0522351 0.0534242 0.0540234 0.0548983 0.052452 0.053401 0.0540036 0.052326 0.0548635 0.0533352 0.0538958 0.0522036 0.0548323 0.0534796 0.0539629 0.0521295 0.0547583 0.0534603 0.053858 0.0522209 0.0548057 0.0535066 0.0538652 0.0547019 0.0536028 0.0523572 0.0538752 0.0546871 0.0535337 0.0518544 0.0537646 0.0547802 0.0517106 0.0536833 0.0547353 0.0537605 0.0519083 0.0535635 0.0519413 0.0540299 0.0547235 0.0536372 0.0517478 0.0539274 0.0545205 0.0516104 0.0536796 0.0540148 0.0544531 0.0528416 0.0518167 0.0539313 0.0545044 0.0529132 0.0520656 0.053948 0.0545731 0.0528993 0.0521489 0.053846 0.0545809 0.0522531 0.0530365 0.0544983 0.053848 0.0529985 0.0544201 0.0520009 0.0538722 0.0528613 0.051904 0.0543262 0.0529398 0.0538431 0.0522082 0.0530027 0.0543585 0.053749 0.0531308 0.0544703 0.0520318 0.0537538 0.0544339 0.053281 0.052504 0.0537643 0.0543752 0.0532141 0.052593 0.0538564 0.0546351 0.05381 0.0526551 0.0530828 0.0546059 0.0537105 0.0527001 0.0531465 0.0545595 0.0536595 0.0523491 0.0532629 0.0546429 0.0524757 0.0535882 0.0532095 0.0546695 0.0525357 0.0536864 0.0528803 0.0545821 0.0530055 0.0536025 0.054535 0.0527854 0.0535655 0.0530693 0.0528756 0.0543994 0.0536815 0.0529716 0.0527433 0.0544688 0.052894 0.0535956 0.0526028 0.0545175 0.0530623 0.0534811 0.0528285 0.0544351 0.053044 0.0526901 0.053471 0.0544954 0.0531377 0.0523019 0.0533033 0.0540904 0.0524099 0.0550685 0.0532067 0.0524318 0.0550623 0.0532641 0.0541346 0.0521717 0.0550792 0.0531249 0.0541169 0.0523891 0.0531977 0.0522627 0.0540266 0.0550845 0.0532966 0.0525372 0.0539667 0.0550778 0.0533985 0.0526462 0.0540075 0.0550565 0.0533343 0.0525034 0.0550489 0.0541448 0.0534792 0.0540444 0.0550374 0.0526508 0.0533311 0.0550575 0.0534075 0.0540673 0.0525358 0.0550615 0.0535237 0.0539378 0.0550428 0.0534857 0.0539658 0.0550959 0.0533506 0.0535527 0.0538027 0.055079 0.0533818 0.0536274 0.0551058 0.0538915 0.0532568 0.0538747 0.0537143 0.0551239 0.0536191 0.0532653 0.0537289 0.0551367 0.0535674 0.0534098 0.0537466 0.0551263 0.0536615 0.0550785 0.053658 0.0551011 0.0535058 0.0537245 0.0538054 0.0550696 0.0538669 0.0535104 0.0533649 0.0551213 0.053679 0.0534117 0.055096 0.0536452 0.0536171 0.0534894 0.0533928 0.0551045 0.0537374 0.0534471 0.0550228 0.0534274 0.0540821 0.0550261 0.0535044 0.053997 0.0533718 0.0550037 0.0535316 0.0540098 0.0533471 0.0550437 0.0531598 0.0539545 0.0550041 0.0535271 0.0538796 0.0532668 0.0550238 0.0534517 0.0532496 0.053895 0.054982 0.0535728 0.053928 0.0530506 0.0549792 0.05366 0.0539943 0.0530683 0.0549555 0.0537469 0.053185 0.0538751 0.0536002 0.054924 0.0531655 0.0538232 0.0549903 0.0533326 0.0536755 0.0537732 0.0549632 0.0533793 0.0538106 0.0537636 0.0549316 0.0538015 0.053426 0.054941 0.0537582 0.0536666 0.0532642 0.0536858 0.0550717 0.0537183 0.0550463 0.0536196 0.0537993 0.0537627 0.055023 0.0537151 0.0536818 0.0537232 0.0550865 0.053854 0.0536606 0.0537511 0.0550632 0.0537528 0.0550529 0.0536161 0.0538729 0.0536469 0.0549769 0.0535457 0.0538542 0.0550067 0.0536407 0.0537996 0.0535869 0.0549436 0.053752 0.0538869 0.0535232 0.0550093 0.0540128 0.053456 0.0550313 0.0539618 0.0539736 0.0534143 0.0549776 0.0540316 0.0551765 0.0540651 0.053609 0.0538964 0.0540157 0.0534951 0.0539304 0.0551482 0.0538527 0.0535525 0.0551774 0.0541062 0.0533794 0.05398 0.0551549 0.0537591 0.0534056 0.0552027 0.0538336 0.0540063 0.0551982 0.0539156 0.0535584 0.0551476 0.0532454 0.0537265 0.0551357 0.0537575 0.0533239 0.0538004 0.0551206 0.0536663 0.0532659 0.0538779 0.0551969 0.0535468 0.0539444 0.0551695 0.0530633 0.0534374 0.0540013 0.0551811 0.0536324 0.0540533 0.0551683 0.0531726 0.0539523 0.0536452 0.0551541 0.0531112 0.0537575 0.0540938 0.0532099 0.0552213 0.0539041 0.0540366 0.0552182 0.0533153 0.0552349 0.0541518 0.0539043 0.0532803 0.0552456 0.0537338 0.0541944 0.0530618 0.053837 0.0541021 0.0541826 0.0530537 0.0529555 0.0552482 0.0542658 0.0531742 0.0529705 0.0552379 0.0542332 0.0535417 0.0530664 0.0552418 0.0542701 0.0534854 0.0552346 0.0528005 0.0534822 0.0543453 0.0552195 0.0529195 0.0534105 0.0551974 0.0530139 0.0533613 0.0544041 0.0552113 0.0531405 0.0535557 0.0552289 0.0531568 0.0544549 0.0532698 0.0552113 0.053494 0.054398 0.0533 0.0551044 0.0534229 0.0543111 0.0531185 0.0551378 0.0534127 0.0550875 0.054395 0.053013 0.0533396 0.0551486 0.0532327 0.054462 0.0533325 0.0551215 0.0542003 0.0527544 0.0532126 0.0551153 0.0541513 0.0529083 0.0532344 0.055045 0.054237 0.0550355 0.0528681 0.053097 0.0542969 0.054995 0.054187 0.0531461 0.0526726 0.0549998 0.0543164 0.0527832 0.0530855 0.0550753 0.054259 0.0532863 0.0527293 0.0550912 0.0543484 0.0531536 0.0530284 0.0550486 0.0532162 0.0543761 0.0531136 0.0551729 0.0544469 0.052847 0.0551669 0.05305 0.0543863 0.0529398 0.0551436 0.0530868 0.0551441 0.0531052 0.0544896 0.0529946 0.0551937 0.0535125 0.0544335 0.0538913 0.0533924 0.053762 0.0551884 0.0535006 0.0539007 0.0538371 0.0551606 0.0533519 0.0538082 0.0539204 0.0534115 0.0551008 0.0537805 0.053794 0.0551202 0.0535096 0.0538631 0.0550618 0.0536156 0.0539504 0.0537888 0.0551169 0.0539791 0.0537654 0.0536906 0.0550721 0.0541261 0.0538269 0.0537886 0.0540657 0.053675 0.0550813 0.0536271 0.054054 0.0536932 0.0540044 0.0548876 0.0536644 0.0535765 0.0541397 0.0536118 0.0549074 0.0536785 0.0541254 0.0537122 0.0548428 0.0536942 0.0538164 0.0532473 0.0548997 0.0535779 0.0538377 0.054869 0.0532634 0.0535891 0.053909 0.0548679 0.0533896 0.0535085 0.0548099 0.0535817 0.0531075 0.0538587 0.0548022 0.0535769 0.0532191 0.0534672 0.0539351 0.0547632 0.053323 0.0534715 0.0548312 0.0539173 0.0534539 0.0534951 0.0547973 0.0540024 0.0534194 0.0533691 0.0547575 0.0540739 0.0535252 0.0547619 0.0533705 0.0549058 0.0533242 0.0548754 0.0541441 0.0536608 0.0539931 0.0549604 0.0534425 0.0535709 0.0549159 0.0535063 0.0534505 0.0540125 0.0549162 0.0515983 0.0540826 0.0535542 0.0548781 0.0516412 0.054838 0.0534329 0.0541514 0.0517309 0.0548362 0.0541959 0.0534689 0.0515043 0.0547542 0.0543229 0.0534218 0.0514515 0.0547965 0.0543324 0.0516296 0.0548377 0.0534741 0.0542671 0.0516437 0.0547966 0.0541979 0.0533579 0.0547282 0.0518899 0.0542153 0.0533648 0.0542745 0.054688 0.0517877 0.0532853 0.0543368 0.054678 0.0519027 0.0546285 0.0543918 0.0532335 0.0520501 0.0547197 0.0533282 0.0544408 0.051755 0.0546424 0.0533238 0.0546768 0.051934 0.054492 0.0533345 0.0545346 0.0519893 0.0544055 0.0532224 0.0545676 0.0518456 0.0544048 0.0531959 0.0514716 0.0544542 0.0532009 0.0513166 0.0544659 0.0531802 0.054479 0.0514848 0.054598 0.0542179 0.0531245 0.0512172 0.0545734 0.0542837 0.0513632 0.0530986 0.0545073 0.0515067 0.0542203 0.0547157 0.0513751 0.0530163 0.0542912 0.0546645 0.0516127 0.0542931 0.0530551 0.0547079 0.0517114 0.0543602 0.0533204 0.0547572 0.0516148 0.0546555 0.054432 0.0517998 0.0534474 0.0547176 0.0532924 0.0515289 0.0544934 0.0546205 0.0534038 0.051672 0.0545758 0.0544375 0.0533014 0.0521079 0.0545212 0.0543639 0.0531704 0.0545243 0.0522441 0.0531951 0.0544125 0.0546249 0.052014 0.0533407 0.0546131 0.0521454 0.0544821 0.0532658 0.0545345 0.0523577 0.0541503 0.0532318 0.054579 0.0541994 0.0522868 0.0531971 0.0541505 0.054949 0.0531087 0.0523803 0.0549699 0.0531774 0.0541526 0.0524935 0.054925 0.0530601 0.0542034 0.0524367 0.0530286 0.0550173 0.0542143 0.0549422 0.052207 0.0542614 0.054984 0.0542733 0.0529615 0.0523845 0.0542574 0.0548424 0.0543232 0.0529349 0.0522634 0.0548811 0.0543706 0.0530684 0.0518655 0.0547867 0.0543257 0.052993 0.0519315 0.0543116 0.0547942 0.0528827 0.0520586 0.054369 0.054893 0.05294 0.0548857 0.0543716 0.0517493 0.0548381 0.0528083 0.0542066 0.0519693 0.05503 0.054275 0.0518427 0.05499 0.0542643 0.0520894 0.0549477 0.0542003 0.0550381 0.0522458 0.0521651 0.0542668 0.0550482 0.0543358 0.0519518 0.0549872 0.0543399 0.0520589 0.0548999 0.0543169 0.0548417 0.0521227 0.0543969 0.0548268 0.0512227 0.0544417 0.0549476 0.0510998 0.0544012 0.0549372 0.0512898 0.0544268 0.0509917 0.0548844 0.051131 0.0544886 0.054744 0.0544211 0.0511791 0.0546857 0.0543841 0.054664 0.0513821 0.054431 0.0547881 0.0514336 0.054422 0.0547177 0.054695 0.054521 0.0515703 0.0546354 0.0544847 0.0512722 0.0544681 0.0545335 0.0514369 0.0545164 0.0545845 0.0544708 0.054587 0.0514505 0.0545187 0.0546298 0.0508719 0.0545616 0.0545674 0.0510295 0.0545725 0.0545282 0.051022 0.0545542 0.0547567 0.0507721 0.0545827 0.0547146 0.0509069 0.0547746 0.0546247 0.0510805 0.0545311 0.0548413 0.0509386 0.0547116 0.0544393 0.0512943 0.0544971 0.0547847 0.051178 0.0545448 0.0546491 0.0513079 0.0545016 0.0545861 0.0513407 0.0546469 0.0545245 0.0545941 0.0510375 0.0546478 0.0545834 0.0510907 0.0545955 0.0545862 0.0511831 0.0546176 0.0545364 0.0540882 0.0546835 0.0511898 0.0540275 0.0546352 0.053966 0.0516774 0.0540306 0.0547261 0.0517034 0.0540942 0.054666 0.0518316 0.054034 0.054694 0.0515549 0.0539772 0.0538487 0.0516265 0.0539152 0.0542874 0.0539148 0.0517318 0.0544265 0.0538609 0.051587 0.0543456 0.053783 0.0539166 0.0543805 0.0519016 0.0539693 0.0538343 0.0520257 0.0543084 0.0543806 0.0541932 0.0519577 0.0544562 0.0541095 0.0517874 0.0541349 0.0544801 0.0518101 0.054059 0.0545598 0.0519087 0.0542271 0.0545058 0.0514467 0.0541747 0.0545634 0.0546084 0.0540833 0.0513791 0.0540144 0.0514879 0.05435 0.0539496 0.0544414 0.0538709 0.051263 0.0544944 0.0540444 0.0513818 0.0539702 0.054432 0.0516455 0.0539133 0.0539013 0.0544176 0.0516252 0.0537239 0.0545157 0.0537669 0.0516839 0.0536007 0.0545007 0.0536602 0.051766 0.0545375 0.0537103 0.0515723 0.0545669 0.0537844 0.0546664 0.0536478 0.0514362 0.0546195 0.0534797 0.054633 0.0534854 0.0515087 0.0535447 0.0545775 0.0533977 0.0525876 0.0535664 0.0546932 0.0535759 0.0525328 0.0546903 0.0534029 0.0526557 0.0545572 0.0534895 0.0546862 0.0538244 0.0524