# vtk DataFile Version 3.0
vtk output
ASCII
DATASET UNSTRUCTURED_GRID
POINTS 27955 float
0 0 0
1 0 0
1 1 0
0 1 0
0 0 0
0 0 0
1 0 0
1 1 0
0 1 0
0 0 0
0 0 0
1 0 0
1 1 0
0 1 0
0 0 0
0.947471 0.00743164 0
0.943127 0 0
1 0 0
1 0.0907534 0
0.947471 0.00743164 0
0 0 0
1 0 0
1 1 0
0 1 0
0 0 0
0 0 0
1 0 0
1 1 0
0 1 0
0 0 0
0 0 0
1 0 0
1 1 0
0 1 0
0 0 0
0 0 0
1 0 0
1 1 0
0 1 0
0 0 0
0 0 0
1 0 0
1 1 0
0 1 0
0 0 0
0 0 0
1 0 0
1 1 0
0 1 0
0 0 0
0 0 0
1 0 0
1 1 0
0 1 0
0 0 0
0 0 0
1 0 0
1 1 0
0 1 0
0 0 0
0 0 0
1 0 0
1 1 0
0 1 0
0 0 0
0 0 0
1 0 0
1 1 0
0 1 0
0 0 0
0 0 0
1 0 0
1 1 0
0 1 0
0 0 0
0 0 0
1 0 0
1 1 0
0 1 0
0 0 0
0 0 0
1 0 0
1 1 0
0 1 0
0 0 0
0 0 0
1 0 0
1 1 0
0 1 0
0 0 0
0 0 0
1 0 0
1 1 0
0 1 0
0 0 0
0 0 0
1 0 0
1 1 0
0 1 0
0 0 0
0.974512 0 0
1 0 0
1 0.0726775 0
0.974512 0 0
0 0 0
1 0 0
1 1 0
0 1 0
0 0 0
0 0 0
1 0 0
1 1 0
0 1 0
0 0 0
0 0 0
1 0 0
1 1 0
0 1 0
0 0 0
0 0 0
1 0 0
1 1 0
0 1 0
0 0 0
0 0 0
1 0 0
1 1 0
0 1 0
0 0 0
0 0 0
1 0 0
1 1 0
0 1 0
0 0 0
0 0 0
1 0 0
1 1 0
0 1 0
0 0 0
0 0 0
1 0 0
1 1 0
0 1 0
0 0 0
0 0 0
1 0 0
1 1 0
0 1 0
0 0 0
0 0 0
1 0 0
1 1 0
0 1 0
0 0 0
0 0 0
1 0 0
1 1 0
0 1 0
0 0 0
0 0 0
1 0 0
1 1 0
0 1 0
0 0 0
0 0 0
1 0 0
1 1 0
0 1 0
0 0 0
0 0 0
1 0 0
1 1 0
0 1 0
0 0 0
0 0 0
1 0 0
1 1 0
0 1 0
0 0 0
0 0 0
1 0 0
1 1 0
0 1 0
0 0 0
0 0 0
1 0 0
1 1 0
0 1 0
0 0 0
0 0 0
1 0 0
1 1 0
0 1 0
0 0 0
0 0 0
1 0 0
1 1 0
0 1 0
0 0 0
0 0 0
1 0 0
1 1 0
0 1 0
0 0 0
0 0 0
1 0 0
1 1 0
0 1 0
0 0 0
0 0 0
1 0 0
1 1 0
0 1 0
0 0 0
0 0 0
1 0 0
1 1 0
0 1 0
0 0 0
0.994103 0 0
1 0 0
1 0.0189252 0
0.994103 0 0
0 0 0
1 0 0
1 1 0
0 1 0
0 0 0
0 0 0
1 0 0
1 1 0
0 1 0
0 0 0
0 0 0
1 0 0
1 1 0
0 1 0
0 0 0
0 0 0
1 0 0
1 1 0
0 1 0
0 0 0
0 0 0
1 0 0
1 1 0
0 1 0
0 0 0
0 0 0
1 0 0
1 1 0
0 1 0
0 0 0
0 0 0
1 0 0
1 1 0
0 1 0
0 0 0
0 0 0
1 0 0
1 1 0
0 1 0
0 0 0
0 0 0
1 0 0
1 1 0
0 1 0
0 0 0
0 0 0
1 0 0
1 1 0
0 1 0
0 0 0
0 0 0
1 0 0
1 1 0
0 1 0
0 0 0
0 0 0
1 0 0
1 1 0
0 1 0
0 0 0
0 0 0
1 0 0
1 1 0
0 1 0
0 0 0
0 0 0
1 0 0
1 1 0
0 1 0
0 0 0
0 0 0
1 0 0
1 1 0
0 1 0
0 0 0
0 0 0
1 0 0
1 1 0
0 1 0
0 0 0
0 0 0
1 0 0
1 1 0
0 1 0
0 0 0
0 0 0
1 0 0
1 1 0
0 1 0
0 0 0
0 0 0
1 0 0
1 1 0
0 1 0
0 0 0
0.906338 0 0
1 0 0
1 0.105381 0
0.906338 0 0
0 0 0
1 0 0
1 1 0
0 1 0
0 0 0
0 0 0
1 0 0
1 1 0
0 1 0
0 0 0
0 0 0
1 0 0
1 1 0
0 1 0
0 0 0
0 0 0
1 0 0
1 1 0
0 1 0
0 0 0
0 0 0
1 0 0
1 1 0
0 1 0
0 0 0
0 0 0
1 0 0
1 1 0
0 1 0
0 0 0
0 0 0
1 0 0
1 1 0
0 1 0
0 0 0
0 0 0
1 0 0
1 1 0
0 1 0
0 0 0
0 0 0
1 0 0
1 1 0
0 1 0
0 0 0
0 0 0
1 0 0
1 1 0
0 1 0
0 0 0
0 0 0
1 0 0
1 1 0
0 1 0
0 0 0
0 0 0
1 0 0
1 1 0
0 1 0
0 0 0
0 0 0
1 0 0
1 1 0
0 1 0
0 0 0
0 0 0
1 0 0
1 1 0
0 1 0
0 0 0
0 0 0
1 0 0
1 1 0
0 1 0
0 0 0
0 0 0
1 0 0
1 1 0
0 1 0
0 0 0
0 0 0
1 0 0
1 1 0
0 1 0
0 0 0
0 0 0
1 0 0
1 1 0
0 1 0
0 0 0
0 0 0
1 0 0
1 1 0
0 1 0
0 0 0
0 0 0
1 0 0
1 1 0
0 1 0
0 0 0
0 0 0
1 0 0
1 1 0
0 1 0
0 0 0
0 0 0
1 0 0
1 1 0
0 1 0
0 0 0
0 0 0
1 0 0
1 1 0
0 1 0
0 0 0
0 0 0
1 0 0
1 1 0
0 1 0
0 0 0
0 0 0
1 0 0
1 1 0
0 1 0
0 0 0
0 0 0
1 0 0
1 1 0
0 1 0
0 0 0
0 0 0
1 0 0
1 1 0
0 1 0
0 0 0
0.0590601 0 0
1 0 0
1 1 0
0.831796 1 0
0.529158 0.616092 0
0.0590601 0 0
0 0 0
1 0 0
1 1 0
0 1 0
0 0 0
0 0 0
1 0 0
1 1 0
0 1 0
0 0 0
0 0 0
1 0 0
1 1 0
0 1 0
0 0 0
0 0 0
1 0 0
1 1 0
0 1 0
0 0 0
0 0 0
1 0 0
1 1 0
0 1 0
0 0 0
0 0 0
1 0 0
1 1 0
0 1 0
0 0 0
0 0 0
1 0 0
1 1 0
0.825861 1 0
0.741073 0.910919 0
0 0.103594 0
0 0 0
0 0 0
1 0 0
1 1 0
0 1 0
0 0 0
0 0 0
1 0 0
1 1 0
0 1 0
0 0 0
0 0 0
1 0 0
1 1 0
0 1 0
0 0 0
0 0 0
1 0 0
1 1 0
0 1 0
0 0 0
0 0 0
1 0 0
1 1 0
0 1 0
0 0 0
0 0 0
1 0 0
1 1 0
0 1 0
0 0 0
0.153994 0 0
1 0 0
1 0.911651 0
0.582617 0.46765 0
0.153994 0 0
0 0 0
1 0 0
1 1 0
0 1 0
0 0 0
0 0 0
1 0 0
1 1 0
0 1 0
0 0 0
0 0 0
1 0 0
1 1 0
0 1 0
0 0 0
0.118523 0 0
1 0 0
1 1 0
0.865978 1 0
0.636 0.700976 0
0.118523 0 0
0 0 0
1 0 0
1 1 0
0 1 0
0 0 0
0 0 0
1 0 0
1 1 0
0 1 0
0 0 0
0 0 0
1 0 0
1 1 0
0 1 0
0 0 0
0 0 0
1 0 0
1 1 0
0 1 0
0 0 0
0 0 0
1 0 0
1 1 0
0 1 0
0 0 0
0 0 0
1 0 0
1 1 0
0.809328 1 0
0.725254 0.908398 0
0 0.0882886 0
0 0 0
0 0 0
1 0 0
1 1 0
0 1 0
0 0 0
0 0 0
1 0 0
1 1 0
0 1 0
0 0 0
0 0 0
1 0 0
1 1 0
0 1 0
0 0 0
0.103508 0 0
1 0 0
1 1 0
0.864075 1 0
0.122124 0.0254245 0
0.103508 0 0
0 0 0
1 0 0
1 1 0
0 1 0
0 0 0
0 0 0
1 0 0
1 1 0
0 1 0
0 0 0
0 0 0
1 0 0
1 1 0
0 1 0
0 0 0
0.295234 0 0
1 0 0
1 0.966992 0
0.972781 0.93113 0
0.295234 0 0
0.342539 0 0
1 0 0
1 0.986925 0
0.375611 0.0514403 0
0.342539 0 0
0.377965 0 0
1 0 0
1 0.889965 0
0.377965 0 0
0.0406104 0 0
1 0 0
1 0.926641 0
0.0406104 0 0
0 0 0
0.173533 0 0
0.0519412 0.0805869 0
0 0.113573 0
0 0 0
0.133236 0 0
1 0 0
1 0.93605 0
0.856391 0.786092 0
0.133236 0 0
0.269881 0 0
1 0 0
1 0.949802 0
0.953108 0.890514 0
0.269881 0 0
0.287193 0 0
1 0 0
1 0.968508 0
0.939297 0.888366 0
0.287193 0 0
0 0 0
1 0 0
1 1 0
0 1 0
0 0 0
0 0 0
0.128414 0 0
0 0.0790017 0
0 0 0
0 0 0
1 0 0
1 1 0
0.802736 1 0
0.720414 0.907627 0
0 0.067796 0
0 0 0
0 0 0
1 0 0
1 1 0
0 1 0
0 0 0
0 0 0
1 0 0
1 1 0
0 1 0
0 0 0
0 0 0
0.149369 0 0
0 0.0669211 0
0 0 0
0 0 0
1 0 0
1 1 0
0.736317 1 0
0.392209 0.54246 0
0 0.00555068 0
0 0 0
0.564732 0 0
1 0 0
1 0.302467 0
0.878373 0.219978 0
0.564732 0 0
0.125574 0 0
1 0 0
1 1 0
0.854921 1 0
0.130807 0.00745945 0
0.125574 0 0
0 0 0
0.0302289 0 0
0 0.0112281 0
0 0 0
0.0831522 0 0
1 0 0
1 0.958587 0
0.0831522 0 0
0.222149 0 0
1 0 0
1 0.977262 0
0.589843 0.468952 0
0.222149 0 0
0 0 0
0.0457787 0 0
0 0.110805 0
0 0 0
0.757319 0 0
1 0 0
1 0.132536 0
0.757319 0 0
0.138247 0 0
1 0 0
1 1 0
0.83901 1 0
0.138247 0 0
0.0100992 0 0
1 0 0
1 1 0
0.728906 1 0
0.394237 0.541746 0
0.0100992 0 0
0 0 0
0.287309 0 0
0.0858005 0.112165 0
0 0.155225 0
0 0 0
0.193382 0 0
1 0 0
1 1 0
0.814599 1 0
0.621954 0.699785 0
0.193382 0 0
0 0 0
0.226332 0 0
0 0.137538 0
0 0 0
0 0 0
0.0127903 0 0
0 0.00422095 0
0 0 0
0.499555 0 0
1 0 0
1 0.820426 0
0.556024 0.0993963 0
0.532215 0.0586737 0
0.499555 0 0
0.427315 0 0
1 0 0
1 0.806456 0
0.427315 0 0
0 0 0
0.334755 0 0
0 0.175595 0
0 0 0
0.506523 0 0
1 0 0
1 0.664247 0
0.974493 0.632165 0
0.506523 0 0
0.534698 0 0
1 0 0
1 0.643036 0
0.811303 0.393334 0
0.692068 0.228886 0
0.534698 0 0
0.757404 0 0
1 0 0
1 0.156947 0
0.7824 0.0169664 0
0.757404 0 0
0.459338 0 0
1 0 0
1 0.73504 0
0.739284 0.394418 0
0.459338 0 0
0.716156 0 0
1 0 0
1 0.194841 0
0.74719 0.0223337 0
0.716156 0 0
0.36087 0 0
1 0 0
1 1 0
0.990721 1 0
0.383378 0.0370541 0
0.36087 0 0
0 0 0
0.321387 0 0
0 0.157872 0
0 0 0
0.421024 0 0
1 0 0
1 0.949637 0
0.421024 0 0
0.529581 0 0
1 0 0
1 0.871615 0
0.57132 0.083047 0
0.548977 0.0396582 0
0.529581 0 0
0 0 0
0.439364 0 0
0.348909 0.045713 0
0 0.211164 0
0 0 0
0 0 0
0.0915684 0 0
0 0.0209271 0
0 0 0
0.666951 0.344347 0
0.149975 0 0
1 0 0
1 0.549019 0
0.666951 0.344347 0
0 0 0
0.0132215 0 0
0 0.0178436 0
0 0 0
0.535731 0 0
1 0 0
1 0.341342 0
0.819154 0.211167 0
0.535731 0 0
0.51571 0 0
1 0 0
1 0.456655 0
0.51571 0 0
0 0 0
0.0435618 0 0
0 0.0673076 0
0 0 0
0.334036 0 0
1 0 0
1 0.499918 0
0.88293 0.415718 0
0.334036 0 0
0 0 0
0.0378097 0 0
0 0.0547865 0
0 0 0
0 0 0
0.516432 0 0
0.50268 0.0075031 0
0 0.263587 0
0 0 0
0 0 0
0.08786 0 0
0.0730483 0.0267507 0
0 0.141915 0
0 0 0
0.504533 0 0
1 0 0
1 0.631693 0
0.959353 0.581395 0
0.510163 0.00734367 0
0.504533 0 0
0.465974 0 0
1 0 0
1 0.344958 0
0.593995 0.0872169 0
0.465974 0 0
0.693612 0.165183 0
0.603209 0 0
1 0 0
1 0.690234 0
0.693612 0.165183 0
0 0 0
0.5418 0 0
0.515806 0.0161501 0
0 0.316123 0
0 0 0
0 0.458137 0
0.605963 0.880028 0
0.763639 1 0
0 1 0
0 0.458137 0
0.430347 0 0
1 0 0
1 0.953672 0
0.430347 0 0
0 0.340634 0
0.222309 0.505818 0
0.840197 1 0
0 1 0
0 0.340634 0
0.502226 0 0
1 0 0
1 0.355747 0
0.502226 0 0
0 0.358971 0
0.20649 0.510433 0
0.825959 1 0
0 1 0
0 0.358971 0
0.323934 0 0
1 0 0
1 0.912407 0
0.838602 0.701591 0
0.517585 0.271499 0
0.323934 0 0
0.469785 0 0
1 0 0
1 0.365066 0
0.590409 0.0876537 0
0.469785 0 0
0.467359 0 0
1 0 0
1 0.854772 0
0.467359 0 0
0 0.549144 0
0.692315 1 0
0 1 0
0 0.549144 0
0.638482 0 0
1 0 0
1 0.259035 0
0.638482 0 0
0.328578 0 0
1 0 0
1 1 0
0.993629 1 0
0.914464 0.884505 0
0.328578 0 0
0 0.500778 0
0.473691 0.771154 0
0.833837 1 0
0 1 0
0 0.500778 0
0.687905 0 0
1 0 0
1 0.195086 0
0.687905 0 0
0.402233 0 0
1 0 0
1 1 0
0.969042 1 0
0.402811 0.00106093 0
0.402233 0 0
0 0.296936 0
0.635059 0.826164 0
0.646139 0.835928 0
0.825463 1 0
0 1 0
0 0.296936 0
0.533336 0 0
1 0 0
1 0.685101 0
0.960807 0.631435 0
0.533336 0 0
0.723636 0 0
1 0 0
1 0.204983 0
0.984884 0.194188 0
0.75144 0.0216859 0
0.723636 0 0
0 0.155404 0
0.822052 1 0
0 1 0
0 0.155404 0
0.550595 0 0
1 0 0
1 0.910737 0
0.583057 0.0705004 0
0.561776 0.0251389 0
0.550595 0 0
0.698976 0 0
1 0 0
1 0.202093 0
0.698976 0 0
0 0.165361 0
0.910952 1 0
0 1 0
0 0.165361 0
0 0.323974 0
0.625367 0.834892 0
0.643987 0.850997 0
0.809692 1 0
0 1 0
0 0.323974 0
0.821044 0 0
1 0 0
1 0.0707334 0
0.821044 0 0
0.61132 0.0574831 0
0.642697 0 0
1 0 0
1 0.921769 0
0.484411 0.309639 0
0.61132 0.0574831 0
0 0.233508 0
0.895989 0.964986 0
0.937267 1 0
0 1 0
0 0.233508 0
0.74403 0 0
1 0 0
1 0.0829702 0
0.74403 0 0
0.485331 0 0
1 0 0
1 0.862974 0
0.485331 0 0
0 0.118439 0
0.383579 0.417165 0
1 0.916501 0
1 1 0
0 1 0
0 0.118439 0
0.467835 0 0
1 0 0
1 0.993634 0
0.467835 0 0
0.716738 0 0
1 0 0
1 0.0972926 0
0.716738 0 0
0 0.125943 0
0.0717128 0.17304 0
1 0.812792 0
1 1 0
0 1 0
0 0.125943 0
0 0.254982 0
0.839105 0.768985 0
1 0.871798 0
1 1 0
0 1 0
0 0.254982 0
0.5736 0 0
1 0 0
1 0.910489 0
0.597732 0.054815 0
0.576935 0.00794202 0
0.5736 0 0
0.702418 0 0
1 0 0
1 0.113918 0
0.702418 0 0
0 0 0
1 0 0
1 1 0
0 1 0
0 0 0
0 0 0
1 0 0
1 1 0
0 1 0
0 0 0
0 0 0
1 0 0
1 1 0
0 1 0
0 0 0
0 0 0
0.27019 0 0
0 0.117594 0
0 0 0
0 0 0
1 0 0
1 1 0
0 1 0
0 0 0
0 0 0
1 0 0
1 1 0
0 1 0
0 0 0
0 0 0
0.150406 0 0
0.989918 1 0
0 1 0
0 0 0
0 0 0
1 0 0
1 1 0
0 1 0
0 0 0
0 0 0
1 0 0
1 1 0
0 1 0
0 0 0
0 0 0
0.156185 0 0
0 0.0604311 0
0 0 0
0 0.149998 0
0.743225 0.646663 0
1 0.824831 0
1 1 0
0 1 0
0 0.149998 0
0.0443785 0 0
1 0 0
1 1 0
0.818257 1 0
0.785915 0.95954 0
0.451487 0.532049 0
0.0443785 0 0
0 0.156139 0
0.730344 0.653175 0
1 0.84382 0
1 1 0
0 1 0
0 0.156139 0
0 0 0
1 0 0
1 1 0
0.633327 1 0
0 0.058862 0
0 0 0
0 0.129128 0
1 0.745217 0
1 1 0
0 1 0
0 0.129128 0
[...]
CELL_DATA 5437
FIELD FieldData 3
weight 1 5437 float
 1.04084 1.04667 1.05288 0.803333 1.05934 1.04711 1.07165 1.04702 1.04047 1.06538 1.05308 1.05962 1.06539 1.05328 1.06558 1.05956 1.07182 1.0658 1.07196 1.05959 0.796704 1.0721 1.022 1.02831 1.0344 1.02184 1.03413 1.03433 1.04076 1.04067 1.02798 1.03427 1.04677 1.04061 1.05302 1.04691 1.04053 1.04682 1.04672 1.05301 1.05943 1.05327 1.05327 1.0531 0.790513 1.05943 1.05337 1.05938 1.06544 1.04671 1.03455 1.04071 1.05305 1.04695 1.05325 1.04058 1.04696 1.04067 1.04079 1.04687 1.0467 1.05327 1.05917 1.05943 0.796885 1.06555 1.05913 1.06573 1.06558 1.05301 1.05954 1.05929 1.06574 1.07181 1.0654 1.05918 1.06566 1.0656 1.07795 1.07182 1.05935 1.06563 1.07202 1.07183 1.07828 1.07788 1.07209 1.07804 1.09061 1.08437 1.07822 1.07837 0.965391 1.0844 1.08432 1.08456 1.0906 1.07212 1.07173 0.965851 1.07195 1.08439 1.07788 1.07836 1.07188 1.07804 0.946634 1.07817 1.08434 1.08415 0.959526 1.08433 0.978039 1.08454 1.09052 1.09049 0.972048 1.09083 1.09668 1.08449 0.959149 1.09084 1.10324 1.09051 0.940873 0.934133 0.928339 0.953131 0.709417 0.94665 0.940849 0.940684 0.97175 0.702997 0.965671 0.990456 0.978015 0.740411 0.965558 0.765856 0.953341 0.728257 0.953341 0.946719 0.75291 0.759466 0.959501 0.965434 0.753136 0.959615 0.709412 0.734283 0.909599 0.921932 0.746993 0.903353 0.896838 0.753375 0.915613 0.765624 0.9344 0.746832 0.928132 0.90953 0.784139 0.771826 0.890406 0.740621 0.778352 0.878366 0.753278 0.884592 0.752924 0.784255 0.759343 0.903081 0.803001 0.89702 0.79692 1.10337 0.921693 1.14663 0.790874 1.12807 0.928048 0.802927 0.921757 1.09086 0.77164 0.934574 1.12821 0.778322 0.922109 1.15932 0.90311 0.759458 1.13445 0.909572 0.771895 1.15316 1.1342 0.78449 0.890622 1.17185 0.790726 0.915789 1.1719 0.915629 0.797085 1.17163 1.15294 0.897039 0.796685 0.984301 0.984554 0.971928 0.740491 1.00318 1.00323 1.147 0.996728 0.978144 0.721732 1.19045 0.959315 1.16555 0.965765 1.1782 0.953117 0.759433 0.971664 1.18459 0.959528 1.00922 0.996833 0.978321 1.19066 1.01573 1.00304 0.772076 1.1908 0.972014 1.17817 0.965511 0.990554 0.99066 0.971844 0.734213 1.15931 0.978354 0.98433 0.940692 1.18438 0.928301 1.17791 0.953245 0.727996 0.946741 1.18414 1.19708 0.934306 1.19044 0.940507 1.19705 0.803038 0.921956 1.18454 0.765393 0.740448 0.90913 1.19708 0.734543 0.778255 0.890461 1.19076 0.740469 0.790489 1.19687 0.928226 0.809215 0.747053 0.915584 1.17823 0.803296 0.902925 1.17196 0.740554 1.19054 0.796682 0.959151 0.753075 1.18454 0.772053 0.947029 1.18425 0.78431 1.17804 1.18416 1.18417 1.19085 0.778368 1.1842 0.959603 0.790518 0.940462 1.18453 1.1779 0.965808 0.784477 1.18454 0.965771 0.759321 0.815395 1.19075 0.934243 0.765569 1.18418 0.80926 0.915618 0.765458 1.19044 0.921884 0.815566 0.753293 1.19676 0.934232 1.1908 0.828007 1.19693 1.18462 0.928081 1.18413 0.840522 1.19086 1.19064 0.928199 1.19058 0.834602 0.759315 1.18441 1.17819 0.865389 1.18429 0.82208 0.746686 1.18425 1.18428 1.19079 0.846918 1.19064 0.753221 1.19701 0.809496 1.19064 0.853098 1.18454 0.815675 1.19081 0.759618 0.87181 1.18428 0.821786 0.865665 1.1842 0.759388 0.846726 1.19041 1.18427 0.852923 0.759226 1.18454 0.828253 1.1908 1.19056 0.853367 0.840761 1.19046 0.771924 0.822094 0.853098 1.19664 1.19069 0.809212 0.753249 1.1843 0.846897 0.80299 0.815804 1.19671 0.853313 0.840523 1.19697 0.82797 0.865786 1.18414 0.821657 1.1906 0.859549 0.778147 1.19665 0.809618 0.871664 1.1904 0.865399 0.778057 1.19066 0.877944 1.19686 0.772073 0.859407 1.19706 0.853086 0.77819 0.859236 1.19043 0.859508 0.784136 0.865823 1.19684 0.790651 0.86563 0.884535 0.853101 0.865717 1.19686 0.871752 0.859253 1.19705 1.19667 0.846757 0.871703 1.19063 0.771674 0.815671 0.777881 0.815726 0.82813 1.19673 0.784145 0.834289 0.80925 0.778211 1.19674 0.847051 0.77193 0.827908 0.834228 0.777939 0.796851 0.777881 1.19707 0.797012 0.834518 0.784616 1.19042 0.834433 0.784342 0.821893 0.790454 1.19085 0.809235 1.19687 0.797037 1.19692 0.803278 0.7782 1.19672 0.784418 1.19711 0.828237 0.784346 0.784344 1.19047 0.840563 0.790472 0.790397 1.19062 0.815579 0.796781 1.19687 0.834217 0.790649 0.821923 1.19057 0.846962 0.803141 0.84068 0.796826 1.19712 0.85322 1.19669 0.846958 0.790714 1.19684 0.859204 0.797081 1.1968 0.85948 0.747007 0.803177 1.19062 0.865429 0.796647 0.80313 0.852991 0.809503 1.19678 0.809212 0.852921 0.802978 1.19702 0.784347 0.809224 0.846627 1.19677 0.840444 0.803007 0.859211 1.19702 0.859146 0.809436 0.846698 0.821968 1.19697 0.79087 1.19683 1.19696 0.74663 0.759377 1.19666 0.759269 1.10318 1.10932 1.11575 1.10956 0.753025 1.09695 1.09068 1.09696 0.753296 1.10302 0.871711 1.10313 1.09674 1.10326 1.12173 0.871905 1.12167 1.11543 1.1158 1.1221 0.909595 1.11571 1.10933 1.10943 1.10918 1.11562 1.12196 1.11543 0.78422 1.11586 0.897014 1.0969 1.09078 1.10337 1.09676 0.87803 1.10332 1.09706 1.0844 0.878045 1.09689 1.09677 1.09079 0.853217 1.10303 1.10334 0.790695 1.10943 0.859465 1.10946 1.10924 1.10322 1.10949 1.11558 0.803149 1.1155 0.8221 1.10928 1.10306 1.10298 1.12798 1.12795 0.840697 1.12824 1.13452 1.12202 1.13459 0.871907 1.12205 1.11552 1.12171 1.12835 0.797116 1.12813 0.828 1.12799 1.12799 1.14049 0.790565 1.13415 1.13428 1.14053 1.13413 1.13434 1.12209 0.903018 1.13424 1.12806 1.12207 1.1279 0.909172 1.1221 1.11585 1.11564 1.10943 1.12177 0.884326 1.12208 1.11562 1.11573 1.10933 0.89074 1.12823 1.12807 0.890391 1.12203 1.13428 0.884586 1.13434 1.12825 1.14044 1.13438 0.871672 1.1155 1.12813 1.12165 0.877913 1.12186 1.08414 1.09058 1.078 1.07806 0.84075 1.09044 1.08458 1.08436 1.07178 0.77822 0.828148 1.07798 1.07207 1.09039 1.078 1.07827 1.09675 1.09688 1.10922 0.846761 0.784208 1.0971 1.10294 1.0908 0.84081 1.08414 1.08425 1.07196 0.79044 1.08461 1.08423 0.840675 1.05955 0.771743 1.04705 1.06567 1.05923 0.784246 1.05288 0.834521 1.04044 1.03433 0.784587 0.765794 0.815851 1.05333 1.04667 0.78414 0.796625 0.746808 1.0406 0.79084 1.02799 1.07796 0.778252 1.06543 0.790672 1.05957 1.07826 0.765806 1.072 0.828229 1.07182 0.772119 1.04686 1.05311 1.04058 1.06559 0.815849 1.05933 0.81556 1.04087 1.04697 1.0969 1.09693 1.10929 0.803034 1.10332 1.10294 1.10295 1.0906 1.08448 1.09666 0.747051 1.09086 0.809352 0.79043 1.09074 1.09044 1.1096 0.759429 0.78436 0.797009 1.11542 0.790584 1.10945 0.796941 0.821834 1.12163 1.11541 1.10325 1.09695 0.784516 1.10332 0.759202 0.815438 0.802998 1.10962 0.753034 1.10947 0.790616 1.07824 0.828246 0.821957 1.07188 1.07166 0.803218 1.07791 1.07187 1.06577 0.822015 0.796876 0.77801 1.05333 1.06547 0.796655 1.07803 1.05913 0.803069 0.828256 0.784587 1.05933 1.08423 0.821899 0.809623 1.08413 1.07822 0.778288 1.09087 0.840657 1.09709 1.0904 0.834508 0.778208 1.06539 0.828068 1.07211 1.06562 0.784286 1.08425 0.784188 1.06568 0.834202 0.79054 1.06553 1.14042 1.14051 0.790506 1.14675 0.846699 0.759447 0.796809 1.1471 1.14691 0.790395 0.853202 1.14071 1.14702 0.778143 1.14057 0.840659 1.14072 0.803222 1.14083 1.14667 1.13415 0.834298 1.14683 1.15295 0.796971 1.15318 0.83454 1.15301 0.765383 1.15957 0.815485 1.15317 0.784429 1.14711 1.15324 0.846686 1.14073 0.790626 1.15297 0.777934 0.852994 0.79052 1.14697 1.14682 0.847122 1.14706 0.802908 1.12818 1.1346 0.84062 0.784239 1.15315 0.796724 0.803336 1.14076 0.802955 1.12797 1.12207 0.790464 0.784181 1.13426 0.796948 1.13437 1.14052 0.803257 0.796839 0.777948 1.13418 0.809319 1.14067 0.796955 1.1342 1.15914 0.815496 1.1408 0.809424 0.79084 1.14666 1.13421 0.821676 1.14697 0.802976 0.809208 1.14085 0.815867 1.15307 0.809568 1.14072 1.15927 0.815531 1.15916 0.790497 1.16577 0.821811 1.1595 0.796858 1.16587 0.784241 1.15334 1.15928 1.15324 0.790679 0.815624 1.15313 0.796702 0.784163 1.15913 1.15944 0.809318 1.16545 0.809166 1.17202 1.16579 0.803351 1.15962 0.828034 0.802905 0.809592 1.17179 0.815535 0.79705 0.803108 1.16554 1.17194 0.80955 0.834419 1.15939 0.81542 0.822111 1.15941 1.15959 1.16545 0.821995 0.815457 1.17199 0.784262 0.815498 1.16566 1.14681 0.815594 1.14679 0.822009 0.790676 1.15302 1.1593 0.821724 1.15309 0.828331 1.1532 1.15936 0.822076 1.14686 0.796673 0.827975 0.821852 1.14674 0.778037 1.14077 0.828116 1.15289 0.822016 1.14669 0.827977 1.16557 0.803032 0.815437 1.16541 0.834453 1.17212 1.15956 1.17208 0.821936 0.815505 0.81558 1.1531 0.815439 1.15294 0.827904 0.803317 1.15308 0.828109 1.15962 1.15915 0.809212 1.15303 0.809217 0.821974 1.12805 1.122 0.828027 1.11556 1.12176 0.821683 0.834342 0.822074 1.12796 1.11546 0.822008 1.12792 1.11575 0.840763 0.821659 1.10305 1.09708 0.872083 1.10962 0.828164 1.11544 0.846863 1.10945 0.83418 1.1344 0.878357 1.12182 1.12823 0.828257 1.14048 1.13426 0.834197 1.12834 0.834619 0.840382 0.840711 0.846821 0.840836 0.790638 0.796921 0.809367 0.797119 0.803344 0.809285 0.821989 0.815611 0.821773 0.827887 0.828116 0.828284 0.884339 1.12179 0.853225 1.10961 0.890494 0.834275 1.12197 1.11543 1.10305 0.890579 1.09059 0.859375 0.834449 1.08417 1.09671 0.803124 0.877938 1.10289 0.821719 0.865621 1.09043 1.07194 0.815535 1.09692 1.08449 0.878225 0.871871 1.07792 0.809562 1.10334 1.1157 0.884185 1.10957 0.809189 1.12189 1.10937 0.840455 1.10326 0.878223 1.09674 1.09062 1.09669 0.834374 1.1029 1.10941 1.09076 0.827925 0.897047 1.13447 0.877889 1.14064 1.13462 0.840817 0.89053 1.12807 1.1471 1.14667 0.902993 1.13431 1.12789 0.840838 1.12827 0.890566 0.897109 0.834209 1.14083 0.921785 1.12184 0.890539 1.1346 0.840706 1.14674 1.14082 1.14082 0.934496 1.14061 0.846867 0.89671 1.1467 0.884619 1.14058 1.13446 1.1281 0.840788 1.14052 1.14681 0.909399 1.1343 0.840537 1.11563 0.896845 1.1154 0.928272 1.12179 0.834142 1.12812 1.11543 0.903333 1.10307 0.859168 1.09702 1.10939 0.847023 1.10916 1.10336 0.865409 0.909127 0.846855 0.878272 1.10318 0.853222 1.12211 0.922027 1.128 1.12188 0.847036 1.12825 0.852959 0.915702 1.13461 0.853265 0.878154 1.1219 1.11586 0.909566 0.859568 0.853272 1.11579 0.847094 1.10915 0.890846 0.903197 0.85292 0.903002 1.11541 0.884287 0.859325 1.10922 0.909501 0.934591 1.01578 0.859271 1.0221 1.00925 0.915798 0.903274 1.02195 0.871899 1.03458 1.02211 1.01574 0.896875 0.865526 0.915548 0.996692 0.92196 0.984175 0.852893 0.978118 0.98446 0.915603 1.00306 0.928222 0.859625 0.990771 0.909586 1.02792 1.03461 0.859354 1.02803 1.04042 1.03439 1.0221 0.865489 0.940669 0.865503 1.01574 0.859187 0.997017 0.784592 0.871738 0.865544 0.996645 1.00957 0.778217 1.00925 0.865653 0.871918 0.790586 1.00333 0.872025 0.884405 0.972051 0.884433 0.790808 0.890446 0.97169 0.878316 0.803165 0.878276 0.878188 0.878292 0.821756 0.946675 0.878267 0.865543 0.815771 0.978203 0.871826 0.865434 0.978071 0.827912 0.853361 0.890685 0.940707 0.846788 0.884461 0.921759 0.834289 0.921815 0.828173 0.87189 0.840429 0.934483 0.952953 0.878348 0.90936 0.903339 0.809178 0.990828 0.884504 0.984621 0.8971 0.990813 0.815855 0.915869 0.984601 0.909342 0.965779 0.809537 0.909609 0.959469 0.903108 0.821937 0.859559 0.890784 0.928116 0.865597 0.915689 0.884175 0.953271 0.772011 0.890439 0.846657 0.946735 0.902945 0.840821 0.896825 0.92807 1.04691 0.828314 1.02791 1.03451 0.896751 0.834199 1.05302 1.02816 1.04672 0.902978 1.01586 0.859165 1.02207 0.77181 1.00933 0.859494 0.927912 1.00924 0.871704 1.02194 0.934149 1.04038 0.890507 0.92201 0.853148 1.01555 0.871946 1.05921 1.05301 1.05936 0.928295 1.05322 0.940425 0.884526 1.04667 0.934269 0.940478 1.02168 0.934521 1.03432 1.04706 0.921658 0.903083 1.0405 0.915547 1.03423 0.909356 1.00331 0.928341 0.934603 0.971892 0.940854 0.896651 0.990389 0.903314 0.940532 0.953003 0.934212 0.953365 1.00316 0.946915 0.959423 0.959325 1.0154 0.965495 0.915777 0.947077 0.946691 0.996906 0.865425 0.946983 0.909134 0.940831 0.959517 0.953255 0.890671 0.953163 0.9405 0.878062 0.921716 0.934282 0.928223 0.790508 0.884554 0.92201 0.965436 0.921963 0.809234 0.921831 0.927959 0.997109 0.94047 0.803024 0.934402 0.947022 0.915401 0.778357 0.934363 0.990431 0.934285 0.790422 0.928214 1.02789 0.915745 0.790668 0.984168 0.946878 0.921643 0.984262 0.796902 0.915609 1.03452 0.797104 0.915604 0.947 0.997091 0.803063 0.928153 0.80313 1.0033 0.940479 0.93423 0.79707 0.977911 0.928144 0.959593 0.940613 0.946702 0.784416 0.946926 0.809509 0.952979 0.971974 0.809471 0.940618 0.815709 0.953258 0.946984 0.80321 0.952886 0.803126 0.978215 0.952929 0.809508 0.959204 0.953079 0.809279 0.965434 0.965675 0.809572 0.971647 0.934332 0.815537 0.915398 0.965439 0.940441 0.815716 0.978138 0.884437 0.822043 0.940855 0.96584 0.928188 0.821698 0.897053 0.984487 0.953158 0.990598 0.828354 0.896805 0.946717 0.82821 0.946851 0.946954 0.834345 0.947062 0.865598 0.959354 0.790731 0.871783 0.940465 0.790476 0.865537 0.859185 0.965852 0.796938 0.859373 0.815452 0.971903 0.853065 0.87829 0.790824 0.990819 0.865789 0.803169 0.977897 0.809408 0.865565 0.89057 0.796677 0.984429 0.871788 0.846914 0.815794 0.971762 0.853306 0.81581 0.859236 0.996858 0.859343 0.99057 0.827922 1.00303 0.859255 0.996785 0.915669 1.00927 0.821685 1.02171 1.0033 0.871739 1.02192 0.821738 0.90312 1.00937 0.865828 1.01568 0.828081 0.902894 1.03444 0.871633 1.02837 0.996707 0.865861 0.921756 0.821803 1.00935 1.01567 0.884294 0.840552 0.909199 1.00333 0.890474 1.02173 1.03416 1.02192 0.834226 0.903115 1.04076 0.89085 1.02795 0.84045 0.878089 1.03461 0.884549 1.04055 0.846685 0.896839 0.946769 0.828307 0.897015 0.847014 0.896649 0.953118 0.8342 0.877934 0.978334 0.834245 0.878322 0.884157 0.840682 0.959503 0.859216 0.853165 0.87789 0.965529 0.846662 0.890639 0.884384 0.953196 0.847099 0.865814 0.971986 0.890418 0.84073 0.984289 0.852998 0.884563 0.990732 0.834144 0.890498 1.00303 0.834279 0.990843 0.815859 0.740793 0.840448 0.996766 0.75914 0.83446 0.809158 1.01585 0.846769 0.978274 0.846921 0.809198 0.959507 0.840625 0.734149 0.971976 0.828035 0.827903 0.83424 0.965551 0.815762 0.834556 0.727947 0.98414 0.821724 1.00309 0.840737 0.990765 0.834578 0.784328 0.759297 0.840619 1.00947 0.790552 0.872122 0.996695 0.796629 0.871712 0.990638 0.784126 0.853133 0.797074 1.00932 0.877918 0.778156 0.865529 1.01559 0.778367 0.796695 0.859158 1.02205 1.02807 0.853124 1.03439 0.802964 0.84701 1.02818 0.846627 1.03449 1.04685 1.04081 0.847028 0.809375 0.790566 0.853244 1.0406 1.04668 0.859186 0.834416 1.04704 0.777991 1.05296 0.865536 1.05915 0.859532 0.784316 1.04077 0.859582 0.840692 0.852951 1.02209 0.771903 1.04676 0.821897 0.909388 1.03428 0.909292 0.765694 0.803191 1.04698 1.05914 1.05324 0.902942 1.05306 0.784245 1.06565 0.803123 0.915722 1.05918 1.06576 0.803067 0.778242 0.921825 0.796948 0.771813 0.90927 0.790421 0.915425 0.78426 0.797 0.903178 0.834552 0.790831 0.909326 0.734523 0.821771 0.771953 0.89682 0.703344 0.921845 0.840704 0.896685 0.746785 0.934502 0.915645 0.853267 0.896863 0.902954 0.765396 0.871834 0.909215 0.928339 0.753252 0.85317 0.934601 0.928329 0.865697 0.703292 0.927918 0.922072 0.940485 0.915671 0.947098 0.921668 0.940721 0.834164 0.715789 0.86538 0.934459 0.884458 0.728303 0.846863 0.921935 0.740587 0.871943 0.921664 0.865749 0.890795 0.753162 0.909518 0.828098 0.878118 0.74688 0.934458 0.871874 0.865537 0.927877 0.884147 0.777987 0.953263 0.890578 0.934189 0.772002 0.878143 0.928351 0.92821 0.759193 0.896895 0.890768 0.8904 0.797086 0.934573 0.872071 0.896836 0.803173 0.902911 0.871717 0.790636 0.940755 0.909285 0.884461 0.934612 0.79672 0.922081 0.90299 0.915742 0.802995 0.953088 0.909276 0.903179 0.784499 0.940795 0.871999 0.902965 0.947112 0.778187 0.896848 0.878024 0.928123 0.909225 0.790649 0.871952 0.878214 0.953069 0.859232 0.759577 0.865456 0.896902 0.865685 0.809372 0.846948 0.884387 0.934151 0.815746 0.903031 0.884361 0.815623 0.796693 0.927936 0.865508 0.809568 0.853109 0.878285 0.915785 0.872011 0.821906 0.828143 0.946856 0.828268 0.915523 0.790573 0.959586 0.909569 0.822043 0.78425 0.921694 0.978323 0.834135 0.772056 0.915601 0.953148 0.79673 0.828259 0.884397 0.803357 0.940559 0.809598 0.809259 0.959354 0.890842 0.828177 0.877903 0.853212 0.815633 0.859541 0.890717 0.815552 0.834197 0.821662 0.834479 0.896809 0.840624 0.903194 0.821836 0.846846 0.872097 0.872021 0.84075 0.897086 0.878342 0.815641 0.87204 0.88413 0.834211 0.821988 0.846709 0.859338 0.840811 0.84712 0.828067 0.846796 0.87827 0.853266 0.809532 0.740379 0.85289 0.8404 0.840854 0.828356 0.859512 0.815663 0.828279 0.847053 0.83427 0.853139 0.853354 1.07791 1.05915 0.859269 1.07199 0.865811 1.05298 1.08427 0.890569 0.865446 0.859247 0.759188 1.06582 0.809162 0.90934 1.04671 0.872108 0.82175 1.04664 0.896984 0.740457 0.822027 1.04059 0.777895 0.915778 0.828128 0.759372 1.05333 0.909507 0.827882 1.05306 0.884578 0.834342 0.903097 0.740858 1.04068 1.09058 0.915863 1.07163 0.815417 0.740663 0.921764 1.0717 0.821744 0.92803 1.08434 0.746846 0.828321 1.07821 0.971957 0.746858 0.82801 1.07825 0.940489 1.06542 0.834414 0.752985 0.996876 1.05934 0.921959 0.840795 1.05917 0.909624 0.834484 1.0593 0.927961 0.853209 1.0468 0.915432 0.921829 1.04055 0.940526 0.853002 1.00923 0.847045 0.934573 1.02799 0.85916 0.978161 1.02809 0.977894 1.01557 0.959281 0.871718 0.98415 0.996981 0.865707 0.971693 0.972024 0.965816 0.86569 0.990536 0.959415 0.978126 0.871746 0.746821 0.978029 0.984247 0.840485 0.977935 0.965825 0.753364 0.846993 1.03438 0.990752 0.840744 1.02171 0.996725 0.859459 0.971934 1.04071 0.853033 1.0031 1.04665 0.828116 1.02821 0.778155 1.02176 0.815501 0.77197 1.01574 1.02826 0.82198 0.765855 0.990751 1.0095 0.834462 1.00295 0.790744 0.997095 0.853192 0.777941 1.02208 0.78451 0.984473 1.00914 0.846703 0.771835 0.965811 0.840681 1.00288 0.971772 0.759423 0.834606 0.984361 0.784134 1.01553 0.834367 0.777999 0.996996 0.997084 0.984322 0.990784 0.840408 1.09664 1.09695 0.771838 1.08439 0.840783 1.09074 0.853221 0.796638 1.09039 0.847105 0.802993 1.07199 0.859139 0.790756 1.05333 0.859433 0.809422 1.0596 0.796869 0.84706 0.802992 0.85914 0.784145 1.07807 0.853031 0.778033 0.784326 0.865551 1.08424 0.778248 0.790639 0.865709 1.06581 0.790768 0.871628 1.10328 0.784436 0.85962 1.09086 0.871858 0.790819 0.872058 1.07806 0.753136 0.865678 1.09668 0.75915 0.878342 1.10934 0.75321 0.878318 1.09676 0.853036 1.07208 0.85941 0.759308 1.06585 0.847027 1.0783 0.853088 0.85931 1.05953 0.746911 0.853271 1.05305 0.865755 0.865482 1.00954 0.74668 0.859223 1.03448 0.746698 0.859364 0.752891 1.01551 0.865575 0.771731 1.0408 0.865757 1.05308 0.87818 0.871924 1.02173 0.778205 0.872051 1.00324 0.7843 0.878368 0.997121 0.784495 0.884398 1.00337 0.777905 0.884138 1.00915 0.99665 0.890874 1.04684 0.871636 1.0468 0.871792 1.03427 0.890564 1.0343 1.05947 0.88445 1.02834 0.878109 1.02207 0.896841 0.978021 0.85919 1.00335 0.865602 1.01558 0.878211 0.872054 1.0096 0.984457 0.877969 0.884407 0.965598 0.890772 0.952934 0.890862 0.940556 0.884606 0.971835 0.884377 0.959549 0.896972 0.947083 0.896891 0.896831 0.890835 0.884586 0.903024 0.903031 0.896708 0.897116 0.915663 0.903071 0.903184 0.88445 0.89679 0.953052 0.909549 0.928279 0.90309 0.965756 0.909514 0.959427 0.909209 0.947085 0.903024 0.909289 0.921871 0.909232 0.915421 0.746681 0.915823 0.890462 0.747042 0.921742 0.922117 0.915845 0.909589 0.921706 0.903141 0.890538 0.890787 0.897078 0.853106 0.890852 0.753348 0.896899 0.822072 0.759183 0.903218 0.834135 0.902904 0.896837 0.865396 0.902928 0.840798 0.909549 0.903123 0.815495 0.915786 0.90945 0.915583 0.915481 0.915539 0.8782 0.909304 0.871922 0.921759 0.84667 0.921653 0.852994 0.934562 0.859343 0.921784 0.834412 0.921689 0.934189 0.928293 0.940453 0.984245 0.928079 0.953091 0.865386 0.934505 0.878337 0.859382 0.990541 0.978089 0.965592 0.88436 0.959268 0.871942 0.94682 0.809292 0.921837 0.796871 0.884257 0.915745 0.809379 0.878083 0.815756 0.871926 0.940755 0.828227 0.890804 0.82187 0.877927 0.971898 0.797023 0.877936 0.953043 0.802955 0.803163 0.959255 0.865498 0.81584 0.953243 0.809292 0.884549 0.809296 0.927885 0.890833 0.847106 0.940384 0.840739 0.896957 0.884464 0.834532 0.87196 0.890835 0.909507 0.834484 0.896779 0.828152 0.928304 0.852886 0.890599 0.909355 0.840638 0.903129 0.821816 0.859374 0.815537 0.853154 0.822012 0.896688 0.840606 0.815661 0.909518 