# vtk DataFile Version 3.0
vtk output
ASCII
DATASET UNSTRUCTURED_GRID
POINTS 44494 float
0.388267 0.375385 0
0.393444 0.378244 0
0.394982 0.385035 0
0.38763 0.391246 0
0.380493 0.387474 0
0.380211 0.380626 0
0.388267 0.375385 0
0.00790723 0 0
0.012296 0 0
0.0187411 0.01501 0
0.0174725 0.0171434 0
0.0107206 0.0177861 0
0.00813824 0.016644 0
0.00790723 0 0
0.388705 0.397832 0
0.38763 0.391246 0
0.394982 0.385035 0
0.40163 0.388198 0
0.402654 0.394702 0
0.394493 0.40103 0
0.388705 0.397832 0
0 0 0
0.00790723 0 0
0.00813824 0.016644 0
0 0.0173468 0
0 0 0
0.025931 0.010695 0
0.0250883 0 0
0.0379577 0 0
0.0343203 0.0139999 0
0.0336327 0.0143626 0
0.025931 0.010695 0
0.012296 0 0
0.0250883 0 0
0.025931 0.010695 0
0.0187411 0.01501 0
0.012296 0 0
0.0174725 0.0171434 0
0.0187411 0.01501 0
0.025931 0.010695 0
0.0336327 0.0143626 0
0.0314623 0.0217763 0
0.0295078 0.0234648 0
0.0210244 0.0219469 0
0.0174725 0.0171434 0
0.305431 0.9854 0
0.315506 0.983248 0
0.318373 0.985108 0
0.317225 1 0
0.307409 1 0
0.305431 0.9854 0
0.0159682 0.0331049 0
0.0135391 0.033303 0
0.00892921 0.0304526 0
0.0107206 0.0177861 0
0.0174725 0.0171434 0
0.0210244 0.0219469 0
0.0159682 0.0331049 0
0.32932 0.983869 0
0.329554 1 0
0.317225 1 0
0.318373 0.985108 0
0.32932 0.983869 0
0 0.0173468 0
0.00813824 0.016644 0
0.0107206 0.0177861 0
0.00892921 0.0304526 0
0 0.0313384 0
0 0.0173468 0
0.330374 0.982998 0
0.333435 0.982391 0
0.341527 0.98726 0
0.339777 1 0
0.329554 1 0
0.32932 0.983869 0
0.330374 0.982998 0
0.0159682 0.0331049 0
0.0210244 0.0219469 0
0.0295078 0.0234648 0
0.0299875 0.0323258 0
0.0204956 0.0360881 0
0.0159682 0.0331049 0
0.344036 0.958507 0
0.354638 0.96957 0
0.34974 0.974433 0
0.338712 0.972555 0
0.335495 0.964611 0
0.344036 0.958507 0
0.393444 0.378244 0
0.402191 0.372403 0
0.40738 0.375476 0
0.408527 0.382806 0
0.40163 0.388198 0
0.394982 0.385035 0
0.393444 0.378244 0
0.354638 0.96957 0
0.359069 0.968813 0
0.363854 0.983987 0
0.352823 0.986901 0
0.350364 0.985326 0
0.34974 0.974433 0
0.354638 0.96957 0
0.380909 0.403088 0
0.388705 0.397832 0
0.394493 0.40103 0
0.396011 0.40765 0
0.391649 0.412272 0
0.380647 0.41029 0
0.380909 0.403088 0
0.359364 0.968554 0
0.369348 0.966356 0
0.371061 0.967021 0
0.374212 0.971765 0
0.368114 0.98529 0
0.367503 0.98549 0
0.363854 0.983987 0
0.359069 0.968813 0
0.359364 0.968554 0
0.0379577 0 0
0.0468037 0 0
0.0443388 0.0146547 0
0.0343203 0.0139999 0
0.0379577 0 0
0.341527 0.98726 0
0.350364 0.985326 0
0.352823 0.986901 0
0.35492 1 0
0.339777 1 0
0.341527 0.98726 0
0.0443388 0.0146547 0
0.0468037 0 0
0.0509518 0 0
0.0569558 0.0136858 0
0.0557517 0.0151416 0
0.0458633 0.0160931 0
0.0443388 0.0146547 0
0.373426 0.39744 0
0.373652 0.392105 0
0.380493 0.387474 0
0.38763 0.391246 0
0.388705 0.397832 0
0.380909 0.403088 0
0.373426 0.39744 0
0.0509518 0 0
0.06548 0 0
0.0633738 0.0119701 0
0.0569558 0.0136858 0
0.0509518 0 0
0.367503 0.98549 0
0.368114 0.98529 0
0.378443 0.987737 0
0.379974 1 0
0.36441 1 0
0.367503 0.98549 0
0.394493 0.40103 0
0.402654 0.394702 0
0.409736 0.398763 0
0.410164 0.403829 0
0.403801 0.409933 0
0.396011 0.40765 0
0.394493 0.40103 0
0.352823 0.986901 0
0.363854 0.983987 0
0.367503 0.98549 0
0.36441 1 0
0.35492 1 0
0.352823 0.986901 0
0.0295078 0.0234648 0
0.0314623 0.0217763 0
0.0443302 0.027182 0
0.0396593 0.0350499 0
0.0344826 0.0359343 0
0.0299875 0.0323258 0
0.0295078 0.0234648 0
0.40738 0.375476 0
0.416046 0.37026 0
0.421105 0.373178 0
0.42186 0.381384 0
0.415305 0.385913 0
0.408527 0.382806 0
0.40738 0.375476 0
0.0314623 0.0217763 0
0.0336327 0.0143626 0
0.0343203 0.0139999 0
0.0443388 0.0146547 0
0.0458633 0.0160931 0
0.0450762 0.0267764 0
0.0443302 0.027182 0
0.0314623 0.0217763 0
0.372843 0.88614 0
0.381841 0.879134 0
0.383946 0.87986 0
0.389301 0.892212 0
0.385372 0.896244 0
0.374367 0.892966 0
0.372843 0.88614 0
0.772924 0.401599 0
0.775488 0.396137 0
0.783857 0.394112 0
0.789206 0.3996 0
0.787257 0.407146 0
0.782616 0.408815 0
0.772924 0.401599 0
0.0579142 0.0257644 0
0.0557517 0.0151416 0
0.0569558 0.0136858 0
0.0633738 0.0119701 0
0.0679079 0.014661 0
0.0679098 0.0231541 0
0.0603411 0.0267132 0
0.0579142 0.0257644 0
0.421105 0.373178 0
0.428747 0.369103 0
0.437035 0.376745 0
0.437111 0.377888 0
0.429168 0.38485 0
0.42186 0.381384 0
0.421105 0.373178 0
0.383946 0.87986 0
0.393366 0.875269 0
0.399347 0.879865 0
0.399218 0.887272 0
0.393875 0.891869 0
0.389301 0.892212 0
0.383946 0.87986 0
0.0450762 0.0267764 0
0.0458633 0.0160931 0
0.0557517 0.0151416 0
0.0579142 0.0257644 0
0.0512774 0.0285993 0
0.0450762 0.0267764 0
0.408527 0.382806 0
0.415305 0.385913 0
0.416185 0.393521 0
0.409736 0.398763 0
0.402654 0.394702 0
0.40163 0.388198 0
0.408527 0.382806 0
0.783857 0.394112 0
0.785876 0.386669 0
0.79259 0.384622 0
0.799216 0.391633 0
0.797221 0.39729 0
0.789206 0.3996 0
0.783857 0.394112 0
0 0.0313384 0
0.00892921 0.0304526 0
0.0135391 0.033303 0
0.00740741 0.0437362 0
0 0.0434428 0
0 0.0313384 0
0.374367 0.892966 0
0.385372 0.896244 0
0.385474 0.900804 0
0.376211 0.910009 0
0.36762 0.900656 0
0.374367 0.892966 0
0.410164 0.403829 0
0.409736 0.398763 0
0.416185 0.393521 0
0.424166 0.396755 0
0.42536 0.403516 0
0.418982 0.408765 0
0.410164 0.403829 0
0.00740741 0.0437362 0
0.0135391 0.033303 0
0.0159682 0.0331049 0
0.0204956 0.0360881 0
0.0217344 0.0437594 0
0.0120335 0.0482514 0
0.00740741 0.0437362 0
0.797221 0.39729 0
0.799216 0.391633 0
0.80584 0.389135 0
0.812411 0.395411 0
0.810046 0.402489 0
0.802864 0.404592 0
0.797221 0.39729 0
0.393875 0.891869 0
0.399218 0.887272 0
0.409331 0.891599 0
0.410227 0.89927 0
0.406133 0.903754 0
0.401741 0.90458 0
0.393875 0.891869 0
0.424166 0.396755 0
0.430252 0.390873 0
0.438185 0.394211 0
0.438611 0.401723 0
0.432561 0.406492 0
0.42536 0.403516 0
0.424166 0.396755 0
0.0204956 0.0360881 0
0.0299875 0.0323258 0
0.0344826 0.0359343 0
0.0315794 0.0447167 0
0.0263711 0.0467925 0
0.0217344 0.0437594 0
0.0204956 0.0360881 0
0.789206 0.3996 0
0.797221 0.39729 0
0.802864 0.404592 0
0.80095 0.409478 0
0.79346 0.41205 0
0.787257 0.407146 0
0.789206 0.3996 0
0.415305 0.385913 0
0.42186 0.381384 0
0.429168 0.38485 0
0.430252 0.390873 0
0.424166 0.396755 0
0.416185 0.393521 0
0.415305 0.385913 0
0 0.0434428 0
0.00740741 0.0437362 0
0.0120335 0.0482514 0
0.0118815 0.0527201 0
0.00193733 0.0582985 0
0 0.0581499 0
0 0.0434428 0
0.389301 0.892212 0
0.393875 0.891869 0
0.401741 0.90458 0
0.397667 0.908906 0
0.393972 0.909361 0
0.385474 0.900804 0
0.385372 0.896244 0
0.389301 0.892212 0
0.747022 0.413081 0
0.747885 0.409135 0
0.756167 0.40662 0
0.763615 0.41423 0
0.760361 0.420346 0
0.75519 0.421901 0
0.747022 0.413081 0
0.00193733 0.0582985 0
0.0118815 0.0527201 0
0.0178671 0.0572752 0
0.0169166 0.0649669 0
0.0112245 0.0673126 0
0.00193733 0.0582985 0
0.399347 0.879865 0
0.407162 0.875586 0
0.417155 0.883886 0
0.409331 0.891599 0
0.399218 0.887272 0
0.399347 0.879865 0
0.368477 0.411147 0
0.380007 0.410901 0
0.379749 0.422797 0
0.371156 0.425301 0
0.366803 0.421961 0
0.368477 0.411147 0
0.771699 0.40219 0
0.772924 0.401599 0
0.782616 0.408815 0
0.778632 0.418262 0
0.776456 0.419049 0
0.767316 0.413044 0
0.771699 0.40219 0
0.0169166 0.0649669 0
0.0178671 0.0572752 0
0.0255723 0.0545649 0
0.031775 0.0599185 0
0.0318889 0.0606537 0
0.0237372 0.0692823 0
0.0169166 0.0649669 0
0.380007 0.410901 0
0.380647 0.41029 0
0.391649 0.412272 0
0.393364 0.421204 0
0.384187 0.425786 0
0.379749 0.422797 0
0.380007 0.410901 0
0.414164 0.865446 0
0.421849 0.867671 0
0.418369 0.883754 0
0.417155 0.883886 0
0.407162 0.875586 0
0.408428 0.868341 0
0.414164 0.865446 0
0.763615 0.41423 0
0.767316 0.413044 0
0.776456 0.419049 0
0.77246 0.427537 0
0.768225 0.429353 0
0.760361 0.420346 0
0.763615 0.41423 0
0.403801 0.409933 0
0.405739 0.416691 0
0.399525 0.424438 0
0.399496 0.424445 0
0.393364 0.421204 0
0.391649 0.412272 0
0.396011 0.40765 0
0.403801 0.409933 0
0.418369 0.883754 0
0.421849 0.867671 0
0.425293 0.866432 0
0.431256 0.870303 0
0.431264 0.881706 0
0.421069 0.885124 0
0.418369 0.883754 0
0.0118815 0.0527201 0
0.0120335 0.0482514 0
0.0217344 0.0437594 0
0.0263711 0.0467925 0
0.0255723 0.0545649 0
0.0178671 0.0572752 0
0.0118815 0.0527201 0
0.751818 0.428026 0
0.75519 0.421901 0
0.760361 0.420346 0
0.768225 0.429353 0
0.766719 0.432421 0
0.756888 0.436026 0
0.751818 0.428026 0
0.371156 0.425301 0
0.379749 0.422797 0
0.384187 0.425786 0
0.384956 0.434272 0
0.373416 0.437283 0
0.370669 0.434704 0
0.371156 0.425301 0
0.417155 0.883886 0
0.418369 0.883754 0
0.421069 0.885124 0
0.423953 0.89465 0
0.41978 0.901183 0
0.410227 0.89927 0
0.409331 0.891599 0
0.417155 0.883886 0
0.0255723 0.0545649 0
0.0263711 0.0467925 0
0.0315794 0.0447167 0
0.0410181 0.0509883 0
0.031775 0.0599185 0
0.0255723 0.0545649 0
0.384187 0.425786 0
0.393364 0.421204 0
0.399496 0.424445 0
0.394922 0.435293 0
0.387402 0.436372 0
0.384956 0.434272 0
0.384187 0.425786 0
0.421069 0.885124 0
0.431264 0.881706 0
0.436818 0.88492 0
0.436292 0.896869 0
0.423953 0.89465 0
0.421069 0.885124 0
0.768225 0.429353 0
0.77246 0.427537 0
0.783362 0.435102 0
0.781755 0.439434 0
0.771555 0.443257 0
0.766719 0.432421 0
0.768225 0.429353 0
0.0344826 0.0359343 0
0.0396593 0.0350499 0
0.0454795 0.0417801 0
0.0415435 0.0509493 0
0.0410181 0.0509883 0
0.0315794 0.0447167 0
0.0344826 0.0359343 0
0.410164 0.403829 0
0.418982 0.408765 0
0.419118 0.415507 0
0.415769 0.41866 0
0.405739 0.416691 0
0.403801 0.409933 0
0.410164 0.403829 0
0.782616 0.408815 0
0.787257 0.407146 0
0.79346 0.41205 0
0.791816 0.421278 0
0.787827 0.422965 0
0.778632 0.418262 0
0.782616 0.408815 0
0.423953 0.89465 0
0.436292 0.896869 0
0.437791 0.899041 0
0.437662 0.90079 0
0.428036 0.909566 0
0.42314 0.90894 0
0.41978 0.901183 0
0.423953 0.89465 0
0.415769 0.41866 0
0.419118 0.415507 0
0.428737 0.418471 0
0.42951 0.426959 0
0.42418 0.431017 0
0.416137 0.427428 0
0.415769 0.41866 0
0.810046 0.402489 0
0.815929 0.408324 0
0.814471 0.414767 0
0.807566 0.418468 0
0.80095 0.409478 0
0.802864 0.404592 0
0.810046 0.402489 0
0.393972 0.909361 0
[...]
CELL_DATA 6400
FIELD FieldData 3
weight 1 6400 float
 0.0549428 0.05197 0.0549429 0.0519114 0.0520581 0.0520024 0.0520576 0.0505618 0.0520339 0.0505959 0.0519735 0.0506306 0.0521076 0.0509917 0.0549882 0.050858 0.0548822 0.0509226 0.0521062 0.0506386 0.0521605 0.0548927 0.0521894 0.0506885 0.0549373 0.0506803 0.052172 0.0550302 0.0521528 0.052115 0.0540618 0.0522591 0.0550651 0.0522089 0.0522145 0.0549867 0.0540123 0.0520184 0.051953 0.0549821 0.0521045 0.0538993 0.0520981 0.0550175 0.0521724 0.0539603 0.0550243 0.052055 0.051999 0.0542067 0.0521524 0.0522616 0.0548085 0.0540917 0.0522414 0.0548474 0.0523921 0.0541018 0.0548866 0.0523925 0.0521711 0.0541334 0.0547815 0.0521595 0.0522531 0.0548283 0.0522502 0.0540191 0.0522497 0.0549389 0.0539977 0.0520986 0.0549341 0.0538481 0.0518724 0.0549711 0.0522611 0.0539069 0.0549022 0.0517829 0.0523205 0.0548572 0.0516211 0.0540078 0.0522989 0.053921 0.0516923 0.0549226 0.0538437 0.0516115 0.0548897 0.0523678 0.0519791 0.053807 0.0550563 0.0523735 0.0518752 0.0538488 0.0551065 0.051859 0.0523164 0.0537451 0.0550853 0.0517075 0.0550473 0.0536859 0.055074 0.0517317 0.0537976 0.0524543 0.0551267 0.0524239 0.0536807 0.0523187 0.0551117 0.0536522 0.0522425 0.0535925 0.0551411 0.0550596 0.0534685 0.0524462 0.0550944 0.0534721 0.0550816 0.0523474 0.0535507 0.0524224 0.0550057 0.0523689 0.0521186 0.0522886 0.0524025 0.0522649 0.0522458 0.0524852 0.0533718 0.0549932 0.052343 0.0524477 0.0550252 0.0534523 0.0524244 0.0550357 0.0525249 0.0537465 0.0524325 0.0549505 0.0522435 0.0537778 0.0524076 0.0549641 0.0536116 0.0523219 0.0549896 0.0524946 0.0537244 0.0522062 0.0550511 0.0525559 0.0519884 0.0535674 0.0550297 0.0524664 0.0518839 0.0536706 0.0525376 0.0550616 0.0520722 0.0535525 0.0549858 0.0516958 0.0534539 0.0525118 0.0550191 0.0525413 0.053333 0.0549999 0.0517559 0.0534997 0.0547573 0.0526353 0.0518983 0.0534291 0.0547973 0.0519887 0.0547131 0.0533004 0.0523994 0.0521298 0.0533985 0.0547297 0.052477 0.052028 0.0547634 0.0524798 0.0540674 0.0547791 0.0517875 0.0525485 0.054105 0.0548269 0.0519453 0.0524601 0.0539519 0.054838 0.0518483 0.0526273 0.0548632 0.0539883 0.0514516 0.0540114 0.0548805 0.0525507 0.0548085 0.05141 0.0539207 0.0548346 0.052572 0.0515255 0.053899 0.0538144 0.051322 0.0546462 0.0527161 0.05121 0.0546996 0.0537998 0.0514404 0.0526663 0.0547457 0.0538017 0.0515864 0.0526128 0.0546438 0.053861 0.0512046 0.0526369 0.0537339 0.0512205 0.0546934 0.0547846 0.0537127 0.0513624 0.0548111 0.0527737 0.0510852 0.0540103 0.054737 0.0527213 0.0509899 0.0539068 0.0547733 0.0521612 0.0509593 0.053939 0.0508857 0.0507391 0.0507669 0.0509911 0.0547716 0.0511687 0.0508042 0.052119 0.0508091 0.0549168 0.0538092 0.0508178 0.050975 0.0549039 0.0522312 0.0538772 0.0515137 0.054953 0.0523117 0.0548816 0.0522977 0.0514201 0.0538761 0.0549297 0.0522785 0.0516152 0.0548915 0.05384 0.0512381 0.0549561 0.0523807 0.051241 0.05374 0.0523631 0.0514452 0.0549876 0.0537797 0.0523809 0.0549663 0.0515719 0.0536831 0.0549313 0.0515956 0.0536832 0.0523946 0.0549556 0.0537232 0.0517189 0.0524524 0.0549303 0.0536176 0.051288 0.0548604 0.0525225 0.0548522 0.0513688 0.0535957 0.0549007 0.0514894 0.0536636 0.0524432 0.0548158 0.0510546 0.0536164 0.0525505 0.0510699 0.054836 0.0535314 0.0525046 0.0508806 0.0548811 0.0534976 0.0525815 0.0508321 0.0549077 0.0536318 0.0508659 0.0548757 0.0535931 0.0511522 0.0522666 0.0549018 0.0534843 0.0522352 0.0510867 0.0523245 0.0548521 0.0533468 0.0512697 0.0524374 0.0508922 0.0548477 0.0533163 0.0509357 0.053409 0.0509024 0.0523887 0.0548748 0.0532827 0.0510537 0.0524496 0.0542783 0.0532538 0.0523051 0.0543313 0.0535626 0.0548091 0.0542763 0.05352 0.0523667 0.0543313 0.0548527 0.0534381 0.0524553 0.0544666 0.0534908 0.0525634 0.0548381 0.0543997 0.0533852 0.0548275 0.0544195 0.0524908 0.0534351 0.0543986 0.054791 0.0526258 0.0532451 0.0542691 0.0547641 0.0542513 0.0533511 0.0525438 0.0548015 0.0543073 0.0548075 0.0531622 0.0542665 0.0542169 0.0548008 0.0525204 0.0533067 0.0544375 0.05477 0.0533505 0.0526107 0.0543654 0.0547653 0.0543608 0.0531959 0.0547113 0.0543595 0.0547573 0.0530966 0.0547189 0.0526531 0.0545356 0.0544662 0.0546634 0.0533508 0.0525397 0.05467 0.0545487 0.052691 0.0533141 0.054726 0.0545236 0.0546856 0.0532008 0.0547292 0.0545898 0.0526172 0.0546319 0.053253 0.0546107 0.0546784 0.0526588 0.053237 0.0546329 0.0526056 0.0546567 0.0526856 0.0531196 0.0547319 0.0546133 0.054499 0.0547538 0.0531577 0.0545087 0.0530904 0.0527114 0.0547842 0.0544322 0.0547026 0.0530498 0.0545592 0.0527826 0.0547157 0.0529635 0.0546127 0.0530391 0.054616 0.054698 0.0528084 0.05312 0.0546738 0.0545657 0.0527719 0.0530009 0.0542402 0.054669 0.0528514 0.0529369 0.0541935 0.0546055 0.0541786 0.053288 0.0541524 0.0546285 0.0528726 0.053194 0.0543158 0.0546437 0.0527011 0.0542575 0.0532325 0.0545795 0.0527539 0.0543176 0.0531556 0.0546771 0.0546421 0.0541186 0.0530426 0.0546574 0.0540939 0.0527515 0.0546186 0.0531418 0.0540755 0.0545566 0.0530249 0.0542354 0.0527346 0.0545987 0.0541583 0.0530562 0.0527882 0.054614 0.0541901 0.0529247 0.0545823 0.0541449 0.0529322 0.0544207 0.0528704 0.052949 0.0545483 0.0528586 0.0544966 0.0527844 0.0528316 0.0545131 0.0543783 0.0527917 0.0545385 0.0544283 0.052842 0.0528978 0.0545113 0.0545343 0.0528707 0.0544828 0.0545034 0.0528098 0.0529312 0.0544713 0.0546217 0.0527078 0.0543442 0.0529479 0.0545598 0.0543016 0.0526361 0.05292 0.0525472 0.0546125 0.0543091 0.0524829 0.0542516 0.0526822 0.0544431 0.0530285 0.0544916 0.0543796 0.0526064 0.0525114 0.0530093 0.0544428 0.054556 0.0524315 0.0544798 0.0543763 0.0524594 0.0544888 0.0528294 0.0526053 0.0546175 0.0547277 0.052782 0.052622 0.0545567 0.0526329 0.0546963 0.052739 0.0545775 0.0527196 0.0526722 0.05467 0.0545752 0.0526826 0.0547369 0.0545061 0.0528257 0.0547119 0.0545157 0.0526953 0.0547484 0.05445 0.052785 0.052674 0.05468 0.0544228 0.0528059 0.0527124 0.0546701 0.0528007 0.0544171 0.0526237 0.0546528 0.0525923 0.0546032 0.0543003 0.0527345 0.0525442 0.0547246 0.0528715 0.0543451 0.0524469 0.0547169 0.0529409 0.0525441 0.0546908 0.0543337 0.0528315 0.0524254 0.0544436 0.0547664 0.0523768 0.054412 0.0543802 0.054776 0.0532169 0.0529367 0.0543486 0.0547717 0.052872 0.0531981 0.0542855 0.0527327 0.0547857 0.0530727 0.0545709 0.0545045 0.0548072 0.0531455 0.0545118 0.0528622 0.0547942 0.0544561 0.0530751 0.0527668 0.0544506 0.0547911 0.0529679 0.054492 0.0528311 0.0547444 0.052906 0.0547633 0.0544417 0.0530111 0.0547479 0.0544713 0.0528142 0.0529594 0.0544381 0.0529279 0.0544178 0.0527361 0.0543385 0.0528438 0.0543952 0.0529291 0.0528583 0.0543858 0.0530028 0.0543843 0.0527527 0.0543901 0.0529603 0.054324 0.0527577 0.0547139 0.0543077 0.0529749 0.0547253 0.052904 0.0543158 0.0530549 0.0542429 0.053103 0.0547851 0.0530662 0.0543062 0.0547632 0.052879 0.0543554 0.0530326 0.0545809 0.0542809 0.0530566 0.0546415 0.0542253 0.0545746 0.0531186 0.054241 0.0528296 0.0529432 0.0546757 0.0530118 0.0546371 0.0529254 0.0541963 0.0530907 0.0546499 0.0526968 0.0545981 0.0545601 0.052809 0.0545007 0.054455 0.0545403 0.0526423 0.0531143 0.05449 0.0527406 0.0545127 0.0530286 0.0530275 0.0525953 0.0544402 0.0544185 0.0545354 0.0546112 0.0526098 0.0545651 0.0532062 0.0544912 0.0545138 0.0526567 0.0531019 0.0544186 0.0545411 0.0531676 0.0525495 0.0543832 0.054688 0.0525436 0.0543031 0.0547038 0.0532464 0.0526459 0.0542975 0.0546649 0.0531872 0.0526227 0.0543644 0.05474 0.053292 0.05245 0.054374 0.0546814 0.0532963 0.052506 0.0542938 0.0547148 0.0523919 0.0544678 0.0546911 0.052489 0.0543904 0.0523228 0.0534143 0.0545972 0.054438 0.0522823 0.0546393 0.0531305 0.0544109 0.0524301 0.0532103 0.0546135 0.0543614 0.0523425 0.0543406 0.0522252 0.054562 0.0542092 0.0532413 0.0523403 0.0546501 0.0542819 0.0531821 0.0543126 0.0525337 0.0546244 0.0542607 0.0532271 0.0525274 0.0540335 0.054193 0.0533491 0.0540219 0.0523982 0.0542082 0.0539675 0.0542172 0.0524739 0.0539378 0.0532916 0.0541368 0.0525213 0.0540747 0.0533232 0.0542162 0.0533211 0.0524127 0.0540039 0.0541198 0.0541093 0.054123 0.0523376 0.0534356 0.0538875 0.0521716 0.0538763 0.0522658 0.0540075 0.0537303 0.0535149 0.0540274 0.0523162 0.0538257 0.0534125 0.0538022 0.0539325 0.0522887 0.0540336 0.0521094 0.053458 0.0539203 0.0539215 0.0522318 0.0539772 0.054024 0.0534447 0.0520937 0.0538554 0.0539372 0.0535698 0.0520374 0.054187 0.0528834 0.0538335 0.0522274 0.0542215 0.0529222 0.054127 0.0521432 0.054121 0.05403 0.0519882 0.054025 0.054308 0.0530395 0.0520885 0.0541934 0.0541092 0.0530417 0.0521594 0.0542279 0.0530045 0.0540236 0.0522691 0.0542912 0.0529643 0.0539384 0.0540814 0.0531122 0.053936 0.0523708 0.053135 0.0539319 0.0538401 0.0524516 0.0540392 0.0538309 0.0538415 0.0540022 0.0531575 0.0524962 0.0539398 0.0541314 0.0532713 0.0522084 0.0542252 0.0537284 0.0531465 0.0523379 0.0541145 0.0532765 0.0543664 0.0537496 0.0523174 0.0543318 0.0536705 0.0542795 0.0519589 0.053596 0.0533498 0.0520239 0.0543174 0.053243 0.0536612 0.0542853 0.0519252 0.0538418 0.0530421 0.0542499 0.0520667 0.0537571 0.0542223 0.0530748 0.0536791 0.053182 0.0520985 0.0541735 0.0535194 0.051871 0.0531344 0.0541993 0.0535711 0.0519722 0.0541491 0.0534265 0.0540775 0.0519188 0.0542333 0.0532461 0.0522423 0.0542591 0.0531511 0.0521731 0.0542009 0.0532199 0.0523197 0.0541686 0.0533367 0.0521228 0.0541546 0.0534058 0.054114 0.0532858 0.0541708 0.0521943 0.0541114 0.0533587 0.0522605 0.0540319 0.0533989 0.0525499 0.0540761 0.0535031 0.0525805 0.0540129 0.0534577 0.0526814 0.0533314 0.0539767 0.0540576 0.0526905 0.0534031 0.054108 0.0534714 0.0524134 0.0540139 0.0534075 0.0525351 0.0539354 0.0535287 0.0526361 0.0540895 0.0535525 0.0527801 0.0535319 0.053426 0.0536591 0.0529164 0.0535112 0.0535973 0.05364 0.0529192 0.0536393 0.0535627 0.0527697 0.0537074 0.0534514 0.053753 0.0538972 0.0534746 0.0537834 0.0535288 0.0536005 0.0540102 0.0536825 0.0539284 0.0538565 0.0535717 0.0537525 0.0537548 0.0538569 0.0536492 0.0536666 0.0537676 0.0537673 0.0536594 0.0539563 0.0538157 0.0538272 0.0529226 0.0537199 0.0538708 0.0524422 0.0538739 0.0539531 0.05254 0.0538694 0.0524054 0.0539532 0.0538309 0.0537825 0.0524855 0.0538471 0.0523535 0.054046 0.0526853 0.0524272 0.0537528 0.0539364 0.0536601 0.0527731 0.0537569 0.053885 0.0524118 0.0528856 0.053711 0.0536801 0.0525442 0.0526261 0.0536451 0.0536492 0.0524914 0.0527031 0.0524435 0.0535688 0.0542338 0.0525874 0.0523682 0.0535161 0.0541837 0.0525429 0.0528057 0.0537672 0.052616 0.0542586 0.0528379 0.0538765 0.052621 0.0518071 0.0537919 0.0541442 0.0518504 0.052694 0.0519077 0.0536842 0.0541658 0.0526143 0.0517539 0.0540951 0.0537174 0.0526917 0.0518075 0.0542657 0.0527947 0.0518708 0.0543482 0.0526994 0.0542071 0.052084 0.0544457 0.0523883 0.0542173 0.0520075 0.0543276 0.0525698 0.0541295 0.0522158 0.0524774 0.0544799 0.0541382 0.0524283 0.0521154 0.0544001 0.0525069 0.0539995 0.0519845 0.0543654 0.0524975 0.0540754 0.0544443 0.0521968 0.0525777 0.0539973 0.05421 0.0520897 0.0526822 0.0539301 0.0542887 0.0517055 0.0527565 0.0539136 0.0516531 0.0542198 0.0527717 0.0540497 0.0517476 0.0526747 0.054137 0.0539714 0.0518363 0.0527336 0.0543079 0.054052 0.0516886 0.0543883 0.0528143 0.0516054 0.0542491 0.0539668 0.0517756 0.0545072 0.0528405 0.0539719 0.0519442 0.0545162 0.0527713 0.0538776 0.0519955 0.0544524 0.0520701 0.0528207 0.0542352 0.0518874 0.0545795 0.0528952 0.0541577 0.0519451 0.0545194 0.0528598 0.0540635 0.052085 0.0529245 0.054543 0.0541452 0.0544753 0.0529698 0.0523543 0.0540778 0.0543363 0.0540672 0.0523187 0.0529774 0.0544124 0.0524611 0.0541548 0.0542846 0.0530894 0.0522743 0.0541588 0.0544442 0.0524925 0.0531223 0.0543675 0.0541428 0.052422 0.0531268 0.0540721 0.0543136 0.052646 0.0530274 0.0540772 0.0543827 0.05269 0.0530704 0.0539854 0.0540692 0.0525574 0.0531683 0.0539827 0.0539878 0.0532199 0.0539841 0.0527966 0.053973 0.0529331 0.052582 0.0538866 0.0541664 0.0528584 0.053901 0.0527014 0.0540915 0.0530054 0.0539073 0.0521727 0.0541121 0.0539866 0.0523766 0.0529202 0.0540176 0.0539905 0.0539038 0.052239 0.0529735 0.0539001 0.0530724 0.0521013 0.0538195 0.0539037 0.052991 0.0523318 0.0539376 0.0538219 0.0530543 0.0522399 0.0538214 0.0538514 0.0530976 0.0538464 0.0542325 0.0523542 0.0531913 0.0525601 0.054194 0.0532801 0.0524499 0.0541493 0.0538592 0.053153 0.0526506 0.053826 0.0532436 0.0543228 0.0524438 0.0537845 0.0542496 0.0533286 0.0537672 0.0525243 0.052552 0.0541943 0.0538832 0.0524448 0.0541677 0.0538013 0.0526839 0.0526459 0.0540661 0.0537611 0.0526157 0.0540493 0.0531462 0.0537994 0.0525692 0.0539617 0.0537229 0.0524819 0.0536449 0.0526376 0.0530709 0.0538772 0.053721 0.0527242 0.0532348 0.0536598 0.0539685 0.0528007 0.0530338 0.0536943 0.054128 0.0527178 0.0530407 0.0541005 0.053571 0.0528952 0.0531485 0.0528124 0.0540317 0.0535573 0.0533169 0.0529223 0.05482 0.0528934 0.0535454 0.0534283 0.0525128 0.0548245 0.0536262 0.0534403 0.0525948 0.0536915 0.0548124 0.0532215 0.0527402 0.0536268 0.0548306 0.0533428 0.0536247 0.0526702 0.0548302 0.0533297 0.0526026 0.0547993 0.0535522 0.0529882 0.0525155 0.0548051 0.0535499 0.0530976 0.0526922 0.0538067 0.0530261 0.0547693 0.0528107 0.0538259 0.053152 0.0547841 0.0528293 0.0537271 0.0548176 0.0529255 0.0536632 0.0529104 0.0547832 0.0529202 0.0548068 0.0537305 0.0529948 0.0530393 0.0548453 0.0537373 0.0527794 0.0532399 0.0537436 0.0548596 0.0528576 0.0533424 0.0537363 0.0548383 0.0536519 0.0531412 0.0530018 0.0548424 0.0532382 0.0535445 0.054854 0.0530106 0.0532143 0.0536416 0.0548869 0.0529252 0.0535933 0.0548796 0.0535253 0.053648 0.0530709 0.0548301 0.0536034 0.0535242 0.052981 0.054816 0.0531506 0.0535266 0.054841 0.053606 0.0548665 0.0531528 0.0535467 0.0536169 0.0548525 0.0535211 0.0530038 0.0534187 0.0548268 0.0531043 0.0535198 0.0535055 0.0548214 0.0532008 0.0534663 0.0537203 0.0532299 0.0547446 0.0535626 0.0547196 0.0533981 0.053819 0.0534268 0.0547555 0.0533074 0.0547582 0.0533669 0.053805 0.0532373 0.0547223 0.0534292 0.0533378 0.0536094 0.0546608 0.0534303 0.0541086 0.0546981 0.0537241 0.0546926 0.0531745 0.0540755 0.0537069 0.0546371 0.0530839 0.0540555 0.0534188 0.0546528 0.053259 0.053963 0.0535098 0.0547881 0.0531967 0.0547555 0.0533086 0.0540212 0.0547602 0.0531015 0.0534442 0.053961 0.0547978 0.0534065 0.0532789 0.0540057 0.0547914 0.0536052 0.0547704 0.0539267 0.053436 0.0536364 0.0547182 0.0539543 0.0533714 0.0546861 0.0537391 0.0538961 0.0546833 0.0532976 0.0535619 0.0538416 0.0547428 0.0547194 0.0535256 0.0538939 0.0533575 0.0539033 0.0546999 0.0536744 0.0538473 0.053422 0.0549141 0.0529175 0.0538107 0.0532118 0.0530153 0.0549205 0.053716 0.0528308 0.0532234 0.0548942 0.0537752 0.0528241 0.0533062 0.0537961 0.0549442 0.0533245 0.052916 0.0538577 0.0549436 0.0537512 0.0531306 0.0549154 0.0532739 0.0537964 0.0548858 0.0531125 0.0534045 0.0536878 0.05488 0.0533719 0.0536246 0.0532212 0.0548617 0.0536833 0.0534267 0.053041 0.0549388 0.0530125 0.0549024 0.0534645 0.0538716 0.0549253 0.0531276 0.0537864 0.053571 0.0527415 0.0537843 0.0534989 0.0549973 0.0528563 0.0537553 0.0536326 0.0549786 0.0529421 0.0535318 0.0538424 0.0550132 0.052742 0.0549742 0.0537073 0.0533207 0.0527356 0.0536874 0.053413 0.0550285 0.0528429 0.0534615 0.0529401 0.0550598 0.0535828 0.0534558 0.0530621 0.0550485 0.0535948 0.0533665 0.0528587 0.0549995 0.0535069 0.0536907 0.0549604 0.0530102 0.0535877 0.0535959 0.053552 0.0549852 0.0529791 0.053607 0.053643 0.0549427 0.0533176 0.0534961 0.0536824 0.0549652 0.0533749 0.0537327 0.0536004 0.055032 0.0531899 0.0536021 0.0536848 0.0532589 0.0536635 0.0550132 0.0533056 0.0537272 0.0535623 0.0548386 0.0534055 0.0536203 0.0536213 0.0548154 0.0535469 0.0534928 0.0548224 0.0538021 0.0534982 0.0548554 0.0537405 0.0536088 0.0535024 0.0549038 0.0537759 0.0534966 0.0536378 0.0548691 0.0536696 0.0547876 0.0533884 0.0538416 0.0535149 0.0547822 0.0534667 0.0535678 0.0538555 0.0533947 0.0532136 0.0547027 0.0539095 0.0547439 0.0532866 0.0531094 0.0539342 0.0547979 0.0533544 0.053701 0.0548331 0.0539962 0.053282 0.0536408 0.05475 0.0539327 0.0531434 0.053641 0.0547579 0.0539992 0.0535696 0.0549347 0.0532297 0.053478 0.0540719 0.0549143 0.0534631 0.0535375 0.0537311 0.0536055 0.0548837 0.0534919 0.0537671 0.0535684 0.0549863 0.0538747 0.0535984 0.0535026 0.0538246 0.054949 0.053483 0.0533833 0.0538065 0.0534344 0.0533816 0.0549531 0.0538485 0.053448 0.0548606 0.0539402 0.053497 0.0548493 0.0533737 0.053911 0.0515461 0.0548092 0.0539623 0.0533888 0.0516417 0.0548134 0.0540319 0.0517315 0.0533354 0.0549008 0.0515058 0.054102 0.0532327 0.0515994 0.0549124 0.0533579 0.0540607 0.0516935 0.0534213 0.0548629 0.0539974 0.0518305 0.0533051 0.0541223 0.0545908 0.0533012 0.0518878 0.0534113 0.0531917 0.0546161 0.0520076 0.0535498 0.051792 0.0531365 0.0545599 0.0535067 0.0532408 0.0546004 0.0534871 0.0518244 0.0535669 0.0545459 0.0534435 0.0519532 0.0545087 0.0535897 0.0514504 0.0533715 0.054488 0.053311 0.053725 0.0515644 0.05444 0.0533775 0.0536431 0.0516596 0.053231 0.054387 0.0515884 0.053766 0.0545132 0.0534092 0.0514986 0.0536747 0.0544388 0.0533338 0.0513969 0.053807 0.0544604 0.0514927 0.0537641 0.0532426 0.0517401 0.0546509 0.0531554 0.0535139 0.0518527 0.0546074 0.0532836 0.0536471 0.0517718 0.0545649 0.0532056 0.0536017 0.054621 0.0516801 0.0532327 0.0518939 0.0546609 0.0535046 0.05316 0.0535369 0.0546246 0.0531749 0.0521076 0.0545755 0.053601 0.0530944 0.0522223 0.0545255 0.0536767 0.0530951 0.0523276 0.0544714 0.0537279 0.054529 0.052094 0.0536927 0.054582 0.0522683 0.0537707 0.0521804 0.0544706 0.053063 0.0538542 0.0530172 0.0524429 0.0538162 0.053012 0.0525304 0.0537557 0.0525495 0.0528585 0.0523554 0.0538256 0.052948 0.0523741 0.0538424 0.0524534 0.0538949 0.0538175 0.052414 0.0539691 0.051994 0.0539046 0.053764 0.0520123 0.0538778 0.0521254 0.0539911 0.0537149 0.0522159 0.0540507 0.0519409 0.054073 0.0545297 0.052085 0.0540181 0.0521587 0.0520221 0.0541438 0.053835 0.0522829 0.0540735 0.0523324 0.0537113 0.0541837 0.0522153 0.0541136 0.0536184 0.0541355 0.0522563 0.053635 0.0513239 0.0538899 0.0536351 0.0539491 0.0515912 0.053528 0.0540233 0.0514788 0.0539528 0.0535392 0.0513842 0.0512756 0.0535298 0.0539047 0.0515047 0.0534245 0.0539825 0.0516608 0.0537196 0.0517996 0.0540529 0.0536204 0.0518126 0.0540212 0.05362 0.0515462 0.0540903 0.0517033 0.0537139 0.0541532 0.0516947 0.0536074 0.0512533 0.0541998 0.0512109 0.0535227 0.0541014 0.0513491 0.0534409 0.0514303 0.0534376 0.0511307 0.054164 0.0511896 0.0534997 0.0513222 0.0533768 0.0542314 0.051343 0.0533336 0.051567 0.0542177 0.0516046 0.0534129 0.053504 0.053341 0.0514591 0.0535332 0.0533893 0.051433 0.0535163 0.0534346 0.0533843 0.0515253 0.0532706 0.0534899 0.05159 0.0533305 0.053464 0.0519131 0.0535798 0.051963 0.0532714 0.0536132 0.0520733 0.053166 0.0536123 0.0518193 0.053702 0.0518491 0.0530823 0.0536729 0.0519757 0.0537228 0.0531754 0.0521487 0.0538276 0.0531359 0.0521513 0.0535289 0.0530217 0.0520566 0.0536452 0.0533316 0.052051 0.0537019 0.0533274 0.051751 0.0532274 0.0517159 0.0535952 0.0518832 0.0532215 0.0536121 0.0516393 0.0532249 0.0537644 0.051656 0.053132 0.0537295 0.051724 0.0531293 0.0537873 0.0530904 0.0518386 0.0537847 0.0537056 0.0519705 0.0530346 0.051943 0.0538949 0.0530029 0.0520786 0.0530251 0.053895 0.0538591 0.0521207 0.0529093 0.053995 0.0517847 0.0536348 0.053972 0.0518993 0.0537148 0.0535319 0.0538103 0.0519344 0.0535155 0.0537887 0.0535414 0.0538863 0.0526235 0.0538684 0.0534165 0.0526545 0.0538081 0.0534146 0.0527753 0.0539141 0.0534087 0.0539444 0.0525536 0.0532998 0.0539684 0.0526635 0.0532915 0.0539479 0.0531829 0.0528894 0.0540143 0.0532922 0.0529135 0.0540585 0.0535732 0.0528012 0.0541207 0.0539826 0.0527843 0.0535595 0.0540528 0.052902 0.0533554 0.0540749 0.0534581 0.0524546 0.0541491 0.0526651 0.0535399 0.0539365 0.0525778 0.0540209 0.0524914 0.053404 0.0540161 0.0523783 0.0534309 0.0541143 0.0524223 0.0532353 0.0541012 0.0525502 0.0531731 0.0541183 0.0526296 0.0527549 0.0542025 0.0532852 0.0528505 0.0541734 0.0531446 0.0526945 0.0542621 0.0531046 0.0527734 0.0542093 0.0531517 0.0