# vtk DataFile Version 3.0
vtk output
ASCII
DATASET UNSTRUCTURED_GRID
POINTS 44482 float
0 0 0
0.0115686 0 0
0.0117063 0.0107293 0
0.0115274 0.0109278 0
0 0.0115254 0
0 0 0
0.0115686 0 0
0.0237293 0 0
0.0236593 0.0109311 0
0.0117063 0.0107293 0
0.0115686 0 0
0.0115274 0.0109278 0
0.0117063 0.0107293 0
0.0236593 0.0109311 0
0.0238181 0.0111124 0
0.0239391 0.0214642 0
0.0119166 0.0217687 0
0.0115274 0.0109278 0
0 0.0115254 0
0.0115274 0.0109278 0
0.0119166 0.0217687 0
0.011384 0.022384 0
0 0.0224484 0
0 0.0115254 0
0.0238181 0.0111124 0
0.0357013 0.0106998 0
0.0357327 0.0107335 0
0.036001 0.0218205 0
0.0242793 0.0218639 0
0.0239391 0.0214642 0
0.0238181 0.0111124 0
0.0236593 0.0109311 0
0.0237293 0 0
0.0356194 0 0
0.0357013 0.0106998 0
0.0238181 0.0111124 0
0.0236593 0.0109311 0
0.011384 0.022384 0
0.0119166 0.0217687 0
0.0239391 0.0214642 0
0.0242793 0.0218639 0
0.0239258 0.0324161 0
0.0126505 0.032557 0
0.011384 0.022384 0
0 0.0224484 0
0.011384 0.022384 0
0.0126505 0.032557 0
0.0117578 0.0336361 0
0 0.0330735 0
0 0.0224484 0
0.0244601 0.0330345 0
0.0239258 0.0324161 0
0.0242793 0.0218639 0
0.036001 0.0218205 0
0.0362183 0.022043 0
0.0359632 0.0326139 0
0.0244601 0.0330345 0
0.0357327 0.0107335 0
0.0475519 0.0106918 0
0.0478635 0.0208367 0
0.0472405 0.0215497 0
0.0362183 0.022043 0
0.036001 0.0218205 0
0.0357327 0.0107335 0
0.0356194 0 0
0.0477792 0 0
0.0479182 0.0102423 0
0.0475519 0.0106918 0
0.0357327 0.0107335 0
0.0357013 0.0106998 0
0.0356194 0 0
0.349725 0.414556 0
0.351682 0.405364 0
0.361583 0.403895 0
0.361849 0.404082 0
0.364293 0.414518 0
0.362148 0.41727 0
0.351167 0.416535 0
0.349725 0.414556 0
0.836252 0.371351 0
0.838544 0.367967 0
0.848712 0.367999 0
0.850961 0.370815 0
0.849058 0.379727 0
0.838556 0.380232 0
0.836252 0.371351 0
0.0479182 0.0102423 0
0.0477792 0 0
0.0605541 0 0
0.0603749 0.0101198 0
0.0600776 0.0104471 0
0.0479182 0.0102423 0
0.0475519 0.0106918 0
0.0479182 0.0102423 0
0.0600776 0.0104471 0
0.0597461 0.0213168 0
0.0478635 0.0208367 0
0.0475519 0.0106918 0
0.351167 0.416535 0
0.362148 0.41727 0
0.363509 0.42596 0
0.360736 0.429327 0
0.349954 0.428812 0
0.349066 0.427631 0
0.351167 0.416535 0
0.0359632 0.0326139 0
0.0362183 0.022043 0
0.0472405 0.0215497 0
0.0483834 0.0326379 0
0.0366463 0.033354 0
0.0359632 0.0326139 0
0.362148 0.41727 0
0.364293 0.414518 0
0.375185 0.414658 0
0.375871 0.415463 0
0.375295 0.42707 0
0.374791 0.427502 0
0.363509 0.42596 0
0.362148 0.41727 0
0.0472405 0.0215497 0
0.0478635 0.0208367 0
0.0597461 0.0213168 0
0.0602465 0.0219072 0
0.0598027 0.0308813 0
0.0484979 0.0327406 0
0.0483834 0.0326379 0
0.0472405 0.0215497 0
0.348357 0.438451 0
0.349954 0.428812 0
0.360736 0.429327 0
0.363216 0.439976 0
0.36305 0.440202 0
0.352396 0.442074 0
0.348357 0.438451 0
0 0.0330735 0
0.0117578 0.0336361 0
0.0122625 0.0439283 0
0.0120473 0.0442193 0
0 0.0445208 0
0 0.0330735 0
0.337366 0.884616 0
0.340529 0.881119 0
0.34972 0.881273 0
0.351457 0.883215 0
0.34942 0.896776 0
0.340377 0.896555 0
0.337366 0.884616 0
0.360736 0.429327 0
0.363509 0.42596 0
0.374791 0.427502 0
0.373631 0.438459 0
0.363216 0.439976 0
0.360736 0.429327 0
0.0117578 0.0336361 0
0.0126505 0.032557 0
0.0239258 0.0324161 0
0.0244601 0.0330345 0
0.0241669 0.0425791 0
0.0122625 0.0439283 0
0.0117578 0.0336361 0
0.327197 0.884614 0
0.337366 0.884616 0
0.340377 0.896555 0
0.337815 0.898964 0
0.32692 0.898476 0
0.325286 0.89666 0
0.327197 0.884614 0
0.012935 0.0531563 0
0.0120473 0.0442193 0
0.0122625 0.0439283 0
0.0241669 0.0425791 0
0.0252351 0.0438054 0
0.0245452 0.0540361 0
0.0238449 0.0546887 0
0.012935 0.0531563 0
0.261403 0.453959 0
0.263312 0.452283 0
0.275161 0.454737 0
0.274136 0.464622 0
0.262335 0.466191 0
0.261921 0.465871 0
0.261403 0.453959 0
0 0.0548542 0
0.0110953 0.0552626 0
0.0124203 0.0656871 0
0 0.0670722 0
0 0.0548542 0
0.349237 0.866496 0
0.352413 0.870108 0
0.34972 0.881273 0
0.340529 0.881119 0
0.337155 0.869857 0
0.339677 0.866819 0
0.349237 0.866496 0
0 0.0445208 0
0.0120473 0.0442193 0
0.012935 0.0531563 0
0.0110953 0.0552626 0
0 0.0548542 0
0 0.0445208 0
0.0110953 0.0552626 0
0.012935 0.0531563 0
0.0238449 0.0546887 0
0.0235429 0.0639138 0
0.0128705 0.0660887 0
0.0124203 0.0656871 0
0.0110953 0.0552626 0
0.251019 0.452816 0
0.261403 0.453959 0
0.261921 0.465871 0
0.250587 0.467081 0
0.249981 0.466571 0
0.249542 0.454288 0
0.251019 0.452816 0
0.352413 0.870108 0
0.363215 0.869573 0
0.364784 0.882363 0
0.363105 0.883911 0
0.351457 0.883215 0
0.34972 0.881273 0
0.352413 0.870108 0
0.0235429 0.0639138 0
0.0238449 0.0546887 0
0.0245452 0.0540361 0
0.0357419 0.0551168 0
0.0359143 0.0646025 0
0.026194 0.0666081 0
0.0235429 0.0639138 0
0.261612 0.440493 0
0.263719 0.442543 0
0.263312 0.452283 0
0.261403 0.453959 0
0.251019 0.452816 0
0.250331 0.441939 0
0.261612 0.440493 0
0.0244601 0.0330345 0
0.0359632 0.0326139 0
0.0366463 0.033354 0
0.0366309 0.0433665 0
0.0252351 0.0438054 0
0.0241669 0.0425791 0
0.0244601 0.0330345 0
0.364088 0.868618 0
0.376234 0.86822 0
0.376874 0.881879 0
0.375619 0.882864 0
0.364784 0.882363 0
0.363215 0.869573 0
0.364088 0.868618 0
0.0366463 0.033354 0
0.0483834 0.0326379 0
0.0484979 0.0327406 0
0.0495265 0.0422681 0
0.0485672 0.0435562 0
0.0370072 0.0437789 0
0.0366309 0.0433665 0
0.0366463 0.033354 0
0.263719 0.442543 0
0.275432 0.440871 0
0.276126 0.441441 0
0.276947 0.453256 0
0.275161 0.454737 0
0.263312 0.452283 0
0.263719 0.442543 0
0.351457 0.883215 0
0.363105 0.883911 0
0.363655 0.897274 0
0.363495 0.897425 0
0.349952 0.897261 0
0.34942 0.896776 0
0.351457 0.883215 0
0.0485672 0.0435562 0
0.0495265 0.0422681 0
0.0615216 0.0420773 0
0.0615613 0.0421277 0
0.0607012 0.0535364 0
0.0497239 0.0529481 0
0.0485672 0.0435562 0
0.251138 0.478978 0
0.250587 0.467081 0
0.261921 0.465871 0
0.262335 0.466191 0
0.26369 0.477559 0
0.261751 0.47973 0
0.251138 0.478978 0
0.0484979 0.0327406 0
0.0598027 0.0308813 0
0.0619543 0.0332418 0
0.0615216 0.0420773 0
0.0495265 0.0422681 0
0.0484979 0.0327406 0
0.363105 0.883911 0
0.364784 0.882363 0
0.375619 0.882864 0
0.375648 0.897263 0
0.363655 0.897274 0
0.363105 0.883911 0
0.0252351 0.0438054 0
0.0366309 0.0433665 0
0.0370072 0.0437789 0
0.036932 0.0539079 0
0.0357419 0.0551168 0
0.0245452 0.0540361 0
0.0252351 0.0438054 0
0.262335 0.466191 0
0.274136 0.464622 0
0.276963 0.46759 0
0.274674 0.477567 0
0.26369 0.477559 0
0.262335 0.466191 0
0.313633 0.896638 0
0.325286 0.89666 0
0.32692 0.898476 0
0.324931 0.910999 0
0.312983 0.910692 0
0.313633 0.896638 0
0.0359143 0.0646025 0
0.0357419 0.0551168 0
0.036932 0.0539079 0
0.0479626 0.0552025 0
0.0488527 0.0638623 0
0.0379009 0.0662768 0
0.0359143 0.0646025 0
0.32692 0.898476 0
0.337815 0.898964 0
0.338986 0.911969 0
0.337866 0.913056 0
0.326917 0.913168 0
0.324931 0.910999 0
0.32692 0.898476 0
0.275161 0.454737 0
0.276947 0.453256 0
0.285803 0.454437 0
0.28716 0.46584 0
0.286303 0.466955 0
0.276963 0.46759 0
0.274136 0.464622 0
0.275161 0.454737 0
0.0479626 0.0552025 0
0.0497239 0.0529481 0
0.0607012 0.0535364 0
0.0611521 0.0540942 0
0.0610143 0.063136 0
0.0495379 0.0644643 0
0.0488527 0.0638623 0
0.0479626 0.0552025 0
0.0370072 0.0437789 0
0.0485672 0.0435562 0
0.0497239 0.0529481 0
0.0479626 0.0552025 0
0.036932 0.0539079 0
0.0370072 0.0437789 0
0.34942 0.896776 0
0.349952 0.897261 0
0.350667 0.911438 0
0.350258 0.911841 0
0.338986 0.911969 0
0.337815 0.898964 0
0.340377 0.896555 0
0.34942 0.896776 0
0.286509 0.44021 0
0.288792 0.442432 0
0.288545 0.452077 0
0.285803 0.454437 0
0.276947 0.453256 0
0.276126 0.441441 0
0.286509 0.44021 0
0.0605541 0 0
0.0725689 0 0
0.0729838 0.00982588 0
0.0717716 0.0110651 0
0.0603749 0.0101198 0
0.0605541 0 0
0.0725689 0 0
0.0854836 0 0
0.0853532 0.00889366 0
0.083176 0.010999 0
0.0729838 0.00982588 0
0.0725689 0 0
0.316089 0.937876 0
0.31423 0.925834 0
0.324804 0.923955 0
0.329255 0.928178 0
0.326386 0.94037 0
0.316089 0.937876 0
0.299411 0.464627 0
0.299231 0.454252 0
0.302345 0.451613 0
0.312024 0.453721 0
0.310955 0.464921 0
0.301091 0.466177 0
0.299411 0.464627 0
0.0600776 0.0104471 0
0.0603749 0.0101198 0
0.0717716 0.0110651 0
0.0716017 0.0214963 0
0.0602465 0.0219072 0
0.0597461 0.0213168 0
0.0600776 0.0104471 0
0.0853532 0.00889366 0
0.0854836 0 0
0.0979676 0 0
0.0981278 0.00884394 0
0.0950752 0.0117336 0
0.0853532 0.00889366 0
0.312578 0.911036 0
0.312983 0.910692 0
0.324931 0.910999 0
0.326917 0.913168 0
0.324804 0.923955 0
0.31423 0.925834 0
0.313431 0.925308 0
0.312578 0.911036 0
0.288792 0.442432 0
0.301016 0.440455 0
0.301356 0.440713 0
0.302345 0.451613 0
0.299231 0.454252 0
0.288545 0.452077 0
0.288792 0.442432 0
0.083176 0.010999 0
0.0853532 0.00889366 0
0.0950752 0.0117336 0
0.0953967 0.019995 0
0.0855049 0.022461 0
0.083582 0.0207459 0
0.083176 0.010999 0
0.326917 0.913168 0
0.337866 0.913056 0
0.33924 0.926831 0
0.329255 0.928178 0
0.324804 0.923955 0
0.326917 0.913168 0
0.0602465 0.0219072 0
0.0716017 0.0214963 0
0.0724988 0.0224287 0
0.0726402 0.0311802 0
0.0619543 0.0332418 0
0.0598027 0.0308813 0
0.0602465 0.0219072 0
0.340016 0.927369 0
0.33924 0.926831 0
0.337866 0.913056 0
0.338986 0.911969 0
0.350258 0.911841 0
0.351275 0.925808 0
0.340016 0.927369 0
0.350258 0.911841 0
0.350667 0.911438 0
0.363048 0.910973 0
0.363873 0.911741 0
0.363109 0.924812 0
0.351427 0.925913 0
0.351275 0.925808 0
0.350258 0.911841 0
0.0717716 0.0110651 0
0.0729838 0.00982588 0
0.083176 0.010999 0
0.083582 0.0207459 0
0.0724988 0.0224287 0
0.0716017 0.0214963 0
0.0717716 0.0110651 0
0.31108 0.439207 0
0.314628 0.442517 0
0.313724 0.452564 0
0.312024 0.453721 0
0.302345 0.451613 0
0.301356 0.440713 0
0.31108 0.439207 0
0.349952 0.897261 0
0.363495 0.897425 0
0.363048 0.910973 0
0.350667 0.911438 0
0.349952 0.897261 0
0.0724988 0.0224287 0
0.083582 0.0207459 0
0.0855049 0.022461 0
0.0854894 0.0308222 0
0.0741167 0.0326602 0
0.0726402 0.0311802 0
0.0724988 0.0224287 0
0.0867121 0.0321365 0
0.0854894 0.0308222 0
0.0855049 0.022461 0
0.0953967 0.019995 0
0.0976264 0.0218479 0
0.0981441 0.0315267 0
0.0867121 0.0321365 0
0.288926 0.476994 0
[...]
CELL_DATA 6400
FIELD FieldData 3
weight 1 6400 float
 0.0566064 0.0566421 0.0566587 0.0566232 0.0566916 0.0566761 0.0566702 0.0566379 0.0567012 0.0567215 0.0567071 0.054464 0.0549027 0.0567368 0.0567524 0.0543043 0.0567341 0.0543306 0.0567608 0.054132 0.0566446 0.0494336 0.0541689 0.0566765 0.0494191 0.0566834 0.0538096 0.0566535 0.0495519 0.0566445 0.0566841 0.0537988 0.0495225 0.0567194 0.0539686 0.0567097 0.0495236 0.0567425 0.0539653 0.0494166 0.0567808 0.0536143 0.056771 0.0494075 0.0567193 0.0536405 0.0493285 0.0567507 0.0492998 0.0537802 0.05678 0.0567511 0.0492964 0.053971 0.0567616 0.0567804 0.0490507 0.0538064 0.0567767 0.0568003 0.0491948 0.053973 0.0568109 0.0491597 0.0567842 0.0491585 0.0491615 0.0567969 0.0539828 0.0492985 0.0568089 0.0568263 0.0536419 0.0492816 0.0568261 0.0568199 0.0538093 0.0490124 0.0568334 0.0536232 0.0568425 0.0491449 0.0568418 0.0534327 0.0568591 0.0489407 0.0534696 0.056798 0.0488906 0.0535943 0.0568393 0.049034 0.056824 0.0568314 0.0487434 0.0532636 0.0568101 0.053418 0.056809 0.0488671 0.0568356 0.0488921 0.0568476 0.0532437 0.056862 0.0490454 0.0568537 0.0533 0.0490336 0.056874 0.0534715 0.056853 0.0486924 0.0568838 0.0534477 0.0487093 0.0568722 0.0568917 0.0532978 0.0488484 0.056685 0.0566576 0.0485304 0.053263 0.0566907 0.04868 0.0566562 0.0538138 0.0566398 0.054856 0.0539685 0.0566802 0.0484843 0.055011 0.0567137 0.0482723 0.0567266 0.04848 0.0567589 0.0548457 0.0567757 0.0482536 0.0549946 0.0567865 0.0485015 0.0567452 0.0567157 0.0486509 0.0560004 0.0567527 0.0482488 0.0567845 0.0566288 0.0482488 0.056109 0.0566637 0.0482243 0.0559912 0.0566953 0.0484382 0.0566476 0.0488927 0.0565778 0.0560917 0.0566051 0.0490051 0.0566227 0.0560609 0.0487046 0.0566635 0.0558829 0.0567312 0.0488373 0.0558917 0.056745 0.0488381 0.0567614 0.0558468 0.0488378 0.0566851 0.0567166 0.0490011 0.0560431 0.0566944 0.0559323 0.0489981 0.0567178 0.0560143 0.056815 0.0488352 0.0568358 0.0558242 0.0486588 0.0568528 0.0559531 0.056852 0.0486457 0.0568042 0.0559029 0.0486506 0.056807 0.0557955 0.056831 0.0484922 0.0568494 0.0557711 0.0484371 0.0568287 0.0557549 0.0486373 0.0568703 0.0484535 0.0568919 0.0556625 0.0482376 0.0568874 0.0482053 0.0568753 0.0555326 0.0568664 0.0484277 0.0556402 0.0568813 0.0484389 0.0556108 0.0567857 0.0482146 0.0567726 0.0555076 0.0481933 0.0568135 0.0557274 0.0568212 0.048196 0.0567988 0.0556781 0.0567732 0.0495162 0.0557042 0.0567412 0.055563 0.0495114 0.0555821 0.056796 0.0493963 0.0568389 0.0554549 0.0568582 0.0494076 0.0554807 0.0568576 0.04937 0.0554357 0.0568754 0.0492861 0.0568134 0.0559795 0.0568387 0.0568301 0.0568439 0.056858 0.0568584 0.0568708 0.0568768 0.0568878 0.0568891 0.0568752 0.0569029 0.0568886 0.0495099 0.0569023 0.0569191 0.0558749 0.0569036 0.056916 0.0494892 0.053982 0.0569297 0.0559254 0.0494769 0.0568968 0.0537866 0.0493951 0.0558946 0.0568895 0.0538033 0.0493702 0.0569061 0.0557693 0.0536397 0.0569213 0.0492609 0.0557048 0.0539833 0.0492423 0.0569099 0.0569101 0.0558123 0.0491572 0.0539637 0.0569223 0.0557358 0.0491193 0.053982 0.0569316 0.0557878 0.0490101 0.0569193 0.0537917 0.0558435 0.0492615 0.0569443 0.0536348 0.0569465 0.0557805 0.049247 0.0569333 0.0538037 0.0556191 0.0491182 0.0569325 0.05361 0.0556783 0.0491046 0.0534536 0.0556685 0.0569601 0.048978 0.0569448 0.0534625 0.0555576 0.0491203 0.0569201 0.0556506 0.0569421 0.0494777 0.0532702 0.0569309 0.0555869 0.0534426 0.0569327 0.0494941 0.055527 0.0569416 0.0493606 0.0569444 0.0532674 0.0554004 0.0569665 0.0532727 0.0493546 0.0569519 0.055471 0.0536205 0.0569509 0.0555611 0.0493744 0.0536165 0.0569614 0.055505 0.0569781 0.049473 0.0534463 0.0554397 0.0569573 0.0569679 0.0494689 0.0532699 0.0553095 0.0569781 0.0534413 0.0554356 0.056985 0.0494924 0.0553861 0.0569542 0.0532736 0.0553133 0.0493538 0.056966 0.0569747 0.055406 0.0548287 0.049367 0.0569733 0.0553743 0.0492361 0.0546632 0.0569616 0.0552379 0.0492514 0.0569848 0.0548177 0.0552695 0.0490947 0.0569871 0.0551282 0.048971 0.054658 0.0569812 0.0569905 0.049114 0.0552241 0.0546579 0.0570111 0.0492284 0.0553209 0.0544912 0.049236 0.0570039 0.0553533 0.0569959 0.0492388 0.0546693 0.0553034 0.0570069 0.0490872 0.0548293 0.055186 0.0569975 0.0490985 0.0551641 0.0548406 0.057022 0.0490945 0.0549859 0.0548203 0.0569044 0.0489627 0.0549489 0.0544884 0.0569049 0.0549374 0.0489604 0.0545118 0.056921 0.0550939 0.0488334 0.0569199 0.0546565 0.0569314 0.0548311 0.0487885 0.0543245 0.0568926 0.048646 0.0547911 0.0544849 0.0569087 0.0489627 0.0550477 0.0569258 0.0541485 0.0550771 0.0488087 0.0569421 0.0543185 0.055028 0.0569338 0.0486173 0.0541483 0.0548705 0.0569606 0.0487908 0.054336 0.0547799 0.0569641 0.0543194 0.0487962 0.0569376 0.0548976 0.0544844 0.0569455 0.0486293 0.0547472 0.0569561 0.0541446 0.048609 0.054727 0.0568889 0.0541637 0.0484275 0.056885 0.0552649 0.054308 0.0484073 0.0568985 0.0481833 0.0553489 0.0541352 0.0569069 0.0484022 0.0551156 0.0481799 0.0568654 0.0548367 0.055213 0.0486024 0.0550687 0.0546874 0.0568452 0.048414 0.0551732 0.0481732 0.0548252 0.0568657 0.0551224 0.0483903 0.0551824 0.0569229 0.0545149 0.0481687 0.055254 0.0569338 0.0550247 0.0481622 0.0569505 0.0550506 0.0569323 0.0549795 0.0546619 0.048938 0.0549111 0.0568913 0.0546624 0.0489403 0.0568795 0.0548148 0.0546742 0.0569096 0.0488032 0.0549836 0.05691 0.0548438 0.0549367 0.0569779 0.0487613 0.0548307 0.0548915 0.0569675 0.0486213 0.054781 0.0569805 0.0548238 0.0489482 0.0546662 0.0569904 0.0489375 0.0546443 0.0569698 0.0545042 0.0487758 0.0545804 0.0569619 0.0547302 0.048767 0.0569757 0.0544958 0.0546869 0.0570124 0.0487762 0.0548372 0.0546705 0.0569941 0.0547658 0.048592 0.0570182 0.0545061 0.0545294 0.0485724 0.0543067 0.0546124 0.0570257 0.0484091 0.0570065 0.0543484 0.0569895 0.048581 0.054335 0.0547813 0.0570041 0.0483811 0.0544772 0.054633 0.0481499 0.0570139 0.0541311 0.0483713 0.0547848 0.0569534 0.0481628 0.0541782 0.0569505 0.0546242 0.0569669 0.0541598 0.0485855 0.0569334 0.0543411 0.0544614 0.0483823 0.0481457 0.0543287 0.054763 0.0569142 0.0483772 0.0569312 0.0547843 0.0541634 0.0481493 0.0569746 0.0547498 0.0569753 0.0481468 0.0541466 0.0569883 0.0546023 0.0539768 0.0569961 0.054624 0.0530753 0.0539726 0.0569602 0.0545983 0.0539721 0.0569387 0.0531219 0.0537991 0.0544581 0.0569811 0.0530773 0.0537911 0.0542934 0.0569648 0.0528906 0.0539896 0.054296 0.0569559 0.0538108 0.0527523 0.0541262 0.0565492 0.0539584 0.0541354 0.0565861 0.0536398 0.0529272 0.0565131 0.0541216 0.0537942 0.053094 0.0566303 0.0544449 0.0537884 0.056591 0.0542901 0.0530932 0.0564673 0.053627 0.0544536 0.0565481 0.0528998 0.0534491 0.0544416 0.056508 0.0536226 0.0529049 0.0565517 0.0541136 0.0536224 0.0542888 0.0566599 0.0529211 0.0566606 0.0541211 0.0532642 0.0542871 0.0527118 0.056694 0.0532775 0.0566214 0.0527244 0.0547607 0.0565819 0.0545899 0.0532684 0.0525724 0.0566194 0.0564195 0.0547165 0.053435 0.0525395 0.0565097 0.0534381 0.0545998 0.0564602 0.0523965 0.0536159 0.0545651 0.0564007 0.0534441 0.052749 0.0563615 0.0544335 0.0534578 0.0564542 0.0546977 0.0527228 0.0565353 0.0532812 0.0565738 0.054747 0.0525797 0.0532682 0.0563948 0.0525491 0.0564795 0.0546933 0.0540033 0.0564283 0.052409 0.0539938 0.0545397 0.0565113 0.0525425 0.053965 0.0544284 0.0564607 0.0530862 0.053817 0.0543787 0.0567209 0.0536425 0.0531063 0.05669 0.0545423 0.0537888 0.0542641 0.0567512 0.053118 0.0542639 0.0567159 0.0539898 0.0529336 0.0544029 0.0566444 0.0539669 0.0566936 0.052757 0.054092 0.0538185 0.0566734 0.0542441 0.0529102 0.0538119 0.0540831 0.0567709 0.052767 0.0543689 0.053638 0.0530646 0.0567912 0.0542181 0.0567734 0.0537949 0.0529545 0.0541018 0.0542048 0.0534563 0.0568062 0.0531262 0.0567342 0.0536165 0.05294 0.0540547 0.0567198 0.0536186 0.0567582 0.0540375 0.0528901 0.0567292 0.0532792 0.0539633 0.0565824 0.0527771 0.0566076 0.0532693 0.052587 0.0537974 0.0566386 0.0534388 0.0527251 0.0539591 0.0564954 0.0565446 0.053793 0.0532587 0.0524126 0.0565279 0.0534488 0.053631 0.0523989 0.0565939 0.0534697 0.0566256 0.0537728 0.0525522 0.0566555 0.0536216 0.0536235 0.0525852 0.056688 0.0532885 0.05396 0.0527122 0.0566837 0.0534405 0.0539396 0.0565711 0.0526041 0.0565374 0.0537693 0.0525465 0.0532762 0.056633 0.0539534 0.0524338 0.0570924 0.0565753 0.0571056 0.0537696 0.0562294 0.0570901 0.0523684 0.056298 0.0536087 0.0563276 0.0522098 0.0571072 0.0535997 0.0563353 0.0534669 0.0571202 0.0561554 0.0523749 0.0571062 0.0562663 0.0536051 0.0522217 0.0571193 0.0561993 0.0570926 0.0520514 0.0563586 0.0571022 0.0532938 0.0570896 0.0563871 0.0534259 0.0570805 0.0520448 0.0562895 0.0571174 0.0532816 0.0522024 0.0562606 0.0571183 0.053253 0.0520455 0.0570972 0.0563237 0.0571182 0.0560691 0.0534517 0.0522422 0.0571304 0.0561091 0.0534207 0.0522043 0.0561748 0.0571317 0.0534232 0.0523706 0.0558896 0.0571261 0.0559816 0.0520782 0.057146 0.0532618 0.0560252 0.0520417 0.0559964 0.0571344 0.0532458 0.0571425 0.051885 0.0559311 0.057134 0.0539318 0.0560925 0.0518795 0.0571222 0.0539151 0.0562033 0.0571329 0.0539324 0.0561262 0.051733 0.0571206 0.0535961 0.0562357 0.0571322 0.0517173 0.0571304 0.0537517 0.0560346 0.0571302 0.0517336 0.0535827 0.0561535 0.0571357 0.0518821 0.0537445 0.0560575 0.0519112 0.0538802 0.0571305 0.0570799 0.0518699 0.056422 0.0538831 0.0570844 0.0564713 0.0517543 0.0570667 0.0537573 0.0570778 0.056461 0.0537139 0.0517124 0.0571115 0.0563614 0.0537193 0.0522366 0.0570916 0.0563086 0.0534256 0.0522285 0.0571024 0.0564035 0.0535734 0.0570969 0.0523894 0.0563906 0.0534054 0.0570626 0.0565029 0.0520667 0.0570612 0.0532592 0.0570749 0.0564392 0.0520696 0.0570715 0.0532347 0.0520503 0.0565119 0.0570899 0.0535417 0.0563603 0.0523743 0.0570794 0.0534092 0.0522258 0.0570832 0.056442 0.053533 0.057114 0.0522555 0.0563672 0.0533683 0.0571286 0.0562051 0.0520565 0.0571077 0.0532267 0.0562782 0.0571285 0.0520891 0.0562274 0.0571215 0.0532003 0.0563228 0.0522181 0.0571231 0.0571145 0.0519051 0.0561108 0.053194 0.0571044 0.0519159 0.0533789 0.05711 0.0561463 0.0517396 0.0570958 0.0561329 0.0545122 0.0517498 0.0570984 0.0562436 0.051889 0.0546781 0.0571174 0.0562783 0.0519297 0.0571156 0.0546355 0.0562841 0.0519009 0.0571055 0.0546476 0.0561899 0.0517344 0.0571105 0.0543533 0.0571337 0.0517242 0.0571403 0.0561911 0.0544799 0.0571348 0.0517637 0.0543262 0.057136 0.0568228 0.0571269 0.0544793 0.0568411 0.0531205 0.0568032 0.0545923 0.0571263 0.0530831 0.0567479 0.0571279 0.0544164 0.056789 0.0531025 0.0571338 0.056765 0.0571353 0.0545658 0.0529046 0.0567824 0.0571374 0.0544331 0.0568548 0.0571344 0.0543189 0.0529325 0.0571384 0.0568481 0.054245 0.057129 0.0530801 0.0568671 0.0571267 0.0541607 0.0571341 0.056884 0.0531168 0.054197 0.0568209 0.0570978 0.0541537 0.0568318 0.0529498 0.0570968 0.0567921 0.054028 0.0571138 0.0529001 0.0568081 0.0539836 0.0571164 0.052938 0.0567054 0.0571002 0.0539993 0.0567189 0.0527737 0.0542656 0.0570727 0.0566576 0.0541004 0.0527291 0.0570713 0.0566853 0.0540827 0.0571166 0.0527557 0.0566688 0.0539326 0.0571111 0.0567379 0.0525565 0.0571114 0.0539226 0.0567707 0.0570928 0.052422 0.056748 0.0545047 0.0570754 0.0567165 0.0524135 0.0570924 0.0544848 0.056695 0.0525821 0.0566614 0.0543474 0.0525989 0.0568741 0.0527628 0.0543365 0.0569078 0.0527249 0.0542644 0.0568862 0.052605 0.0544088 0.0569101 0.0543663 0.0525478 0.0544525 0.0568114 0.0524375 0.0568526 0.0542041 0.0568818 0.0542886 0.0568417 0.0531026 0.0568341 0.0541268 0.0569263 0.0531106 0.0541822 0.056897 0.0540065 0.053084 0.0541685 0.0569313 0.0529261 0.0540168 0.056854 0.0538365 0.0529356 0.0538517 0.0568642 0.0537676 0.0531336 0.0568994 0.0539264 0.0570725 0.0567935 0.0540884 0.0530792 0.0538727 0.0567697 0.0570719 0.0529147 0.0539597 0.0567984 0.057129 0.0540381 0.0567391 0.0529562 0.0571315 0.0566861 0.0537052 0.0571247 0.0567223 0.053628 0.0529026 0.0571141 0.0537901 0.0566881 0.0571178 0.0527827 0.056811 0.0571161 0.0538581 0.0527462 0.0568182 0.0571211 0.0538266 0.0571217 0.0525955 0.057111 0.0536475 0.0567718 0.0571084 0.0527612 0.0536668 0.0566956 0.0571126 0.0525701 0.0536869 0.0567453 0.0571132 0.0524262 0.0567572 0.0535115 0.0571057 0.0525729 0.0534991 0.056715 0.0571101 0.0537613 0.0526047 0.0571026 0.0566022 0.0538044 0.0527471 0.0571097 0.0565424 0.053744 0.0570909 0.0527357 0.0535913 0.0566165 0.0570855 0.0571055 0.0565741 0.0534052 0.0525688 0.0570664 0.0564706 0.0535809 0.0524331 0.0570863 0.0564809 0.0533371 0.057064 0.0523826 0.0565517 0.0533494 0.0570936 0.0566315 0.0533005 0.0570793 0.0522126 0.0566398 0.0571013 0.0522508 0.0531685 0.056597 0.0570831 0.0520434 0.0565746 0.0570627 0.0531559 0.0564991 0.0520838 0.0570565 0.0534584 0.0565099 0.0523793 0.0570698 0.0565301 0.0532433 0.052249 0.0534198 0.0563886 0.0522671 0.0570471 0.0532497 0.0563153 0.0520828 0.0570538 0.0570653 0.0563965 0.0522148 0.0531082 0.0570601 0.056421 0.0570392 0.0521012 0.0570451 0.053072 0.0562195 0.0518833 0.0570801 0.0536667 0.0563191 0.0519276 0.057077 0.0519182 0.0536555 0.0570654 0.0562268 0.0570527 0.0517699 0.0535126 0.0564263 0.057043 0.0563475 0.0570295 0.0534891 0.0517275 0.0564523 0.0570195 0.053313 0.0517596 0.0563734 0.0570342 0.0535817 0.0520584 0.0570548 0.0562486 0.0519078 0.0570448 0.0519278 0.0570943 0.0562561 0.0517605 0.056342 0.0571003 0.0517678 0.0570888 0.0562812 0.0523949 0.0535256 0.0571049 0.0566673 0.0570966 0.0522634 0.0534559 0.056613 0.0571 0.0522468 0.05335 0.0570891 0.0566038 0.0534265 0.0570646 0.0522334 0.0565377 0.0570769 0.0532795 0.0520996 0.0565505 0.0533295 0.0570532 0.0520915 0.0566268 0.0570674 0.0530805 0.0570783 0.0524114 0.0566331 0.0531432 0.05709 0.052266 0.0570794 0.0566536 0.0531693 0.0565645 0.0570671 0.0524073 0.0529659 0.0565661 0.0570124 0.0531674 0.0520977 0.0570287 0.0565885 0.0532467 0.0570187 0.0522489 0.0531099 0.0564539 0.0570067 0.0520674 0.0570018 0.052997 0.0564872 0.0519159 0.0570257 0.0564664 0.0519321 0.0570357 0.0529327 0.0562891 0.0570142 0.0563738 0.051764 0.0569778 0.0527541 0.0569946 0.0562947 0.0569897 0.0517832 0.052817 0.056387 0.0569682 0.0517752 0.0564105 0.0527176 0.0570042 0.0519306 0.0564838 0.0569934 0.0528875 0.0519311 0.0565084 0.0569855 0.0524715 0.0519389 0.05643 0.0570563 0.0525674 0.0570479 0.056407 0.0520922 0.0570454 0.0526509 0.0570376 0.0517788 0.0563133 0.0525247 0.0570376 0.0517886 0.0563121 0.052788 0.0570576 0.0570489 0.0528162 0.0563407 0.0570288 0.0515852 0.0570206 0.0569772 0.0529762 0.05699 0.0515706 0.057011 0.0570027 0.0526086 0.0570274 0.0515608 0.0569918 0.057029 0.0526348 0.0514354 0.0569985 0.0570374 0.0523876 0.0570042 0.0570152 0.0522092 0.0512825 0.057014 0.0570263 0.0523128 0.0570173 0.0570162 0.0514065 0.0570149 0.0521421 0.0571095 0.0570201 0.052032 0.0571044 0.0515928 0.0570276 0.0570943 0.0521663 0.057038 0.0515566 0.0570937 0.0523697 0.057049 0.051292 0.057102 0.0570342 0.0524821 0.0514292 0.0570997 0.0570161 0.0524534 0.0570919 0.0514053 0.0570286 0.0570834 0.0522664 0.0514439 0.057045 0.0570861 0.0511419 0.0522963 0.0570347 0.0570735 0.0570755 0.0511338 0.0570246 0.0528945 0.0570869 0.0570457 0.0512655 0.057076 0.0529125 0.0570347 0.0570812 0.0511326 0.0570521 0.0570656 0.0570483 0.0527106 0.050991 0.0570805 0.0570558 0.0570755 0.0527316 0.0570574 0.0510012 0.0570682 0.0570653 0.0570644 0.0512737 0.0529551 0.0570543 0.0511486 0.0570446 0.0530125 0.0570552 0.057074 0.0512592 0.0570436 0.0570597 0.0531298 0.0509978 0.0570355 0.0570692 0.0570481 0.0511261 0.0570454 0.0527841 0.0570609 0.0570296 0.0510086 0.0570457 0.0529609 0.0570512 0.0515898 0.0570407 0.0570567 0.0528431 0.0570651 0.0514417 0.0570252 0.0525549 0.0570742 0.0515903 0.0525803 0.0570659 0.0570281 0.0515745 0.0570557 0.052369 0.0570546 0.0570172 0.0512921 0.0570684 0.0524436 0.0570642 0.0514372 0.0570583 0.0570562 0.0523933 0.0514257 0.0570813 0.0570538 0.0526193 0.057073 0.057065 0.0515836 0.0526292 0.0570868 0.0570559 0.0527891 0.051609 0.057045 0.0570689 0.057044 0.0514438 0.0526692 0.057078 0.0570337 0.0570805 0.0514594 0.0524529 0.0570399 0.0570865 0.0570304 0.0511526 0.0524861 0.0570889 0.0511554 0.0519695 0.0570202 0.0570844 0.0518511 0.0570326 0.0512896 0.0570905 0.0516854 0.057023 0.0570963 0.0510162 0.0516434 0.057094 0.051026 0.0518113 0.057015 0.0571002 0.0511336 0.0518364 0.0570316 0.0570982 0.0512798 0.0570416 0.05211 0.0571009 0.0570931 0.0570288 0.0520065 0.0513047 0.0570341 0.0571094 0.0513001 0.0521317 0.0570203 0.0511689 0.0571088 0.0517678 0.0570099 0.0510391 0.0519403 0.0570354 0.0570077 0.051156 0.0570444 0.057002 0.051979 0.0570291 0.0508821 0.0570514 0.0513584 0.0570025 0.0515206 0.0570305 0.0570078 0.05086 0.0514788 0.0570272 0.0570253 0.0515173 0.0508631 0.0570319 0.0569934 0.0516711 0.0507301 0.0570437 0.056984 0.0511979 0.0570471 0.0507601 0.0513223 0.0570377 0.0569679 0.0570584 0.0508765 0.0513572 0.0569887 0.0570578 0.0516128 0.0509953 0.0570752 0.0518004 0.050871 0.0516553 0.0570459 0.0570736 0.0507462 0.0570514 0.0514512 0.057015 0.0507307 0.0570611 0.0514978 0.0570517 0.0507547 0.0570422 0.0506097 0.0569931 0.0522148 0.0569738 0.057009 0.0521261 0.0506411 0.056968 0.0570046 0.0570076 0.052225 0.0570221 0.0570451 0.0570314 0.0518882 0.0504932 0.0570186 0.0520535 0.0569757 0.0505026 0.0570438 0.0520609 0.0569844 0.0570075 0.0505231 0.0519644 0.056995 0.0569735 0.0506112 0.0570077 0.0570409 0.0522868 0.0506354 0.0569674 0.0570167 0.0523008 0.0570346 0.0506234 0.0569665 0.0570516 0.0568814 0.0505037 0.0523279 0.0570032 0.0569316 0.0570237 0.0519702 0.0505205 0.0569239 0.0570087 0.0521367 0.0508693 0.0569285 0.050897 0.0521502 0.0570807 0.0568194 0.0570817 0.0507462 0.0519912 0.0570971 0.0568129 0.0507782 0.0517358 0.057089 0.0568689 0.0509926 0.0518896 0.0570664 0.0568014 0.0509086 0.0515739 0.0570883 0.0569194 0.0570758 0.0517365 0.0568724 0.0510121 0.057101 0.0569205 0.0516566 0.0507881 0.057099 0.0568081 0.0508572 0.0515811 0.057103 0.0568636 0.050876 0.0518107 0.0568664 0.0571082 0.0506177 0.0518413 0.0568041 0.0570829 0.0506545 0.0518181 0.0570923 0.0570367 0.0571025 0.0505043 0.0516565 0.0570422 0.0570982 0.0505315 0.0570075 0.0570582 0.051683 0.0507317 0.0570348 0.0570671 0.0569649 0.0507503 0.0570728 0.0530208 0.0570415 0.0506669 0.0569613 0.0530187 0.0570007 0.0506322 0.0570263 0.0569586 0.0506096 0.0570013 0.0570173 0.0530606 0.0505029 0.0570312 0.0570383 0.0569918 0.0570517 0.0528487 0.0505228 0.0570791 0.0570221 0.0528576 0.0570609 0.0505481 0.0569528 0.0570684 0.0569847 0.0515753 0.0530646 0.0570874 0.0569437 0.0570458 0.0516052 0.0529014 0.0568676 0.057076 0.0569058 0.0514355 0.0528889 0.0569171 0.0570487 0.0514571 0.0569064 0.0530663 0.0570859 0.0514593 0.0568564 0.0570649 0.0529044 0.0516071 0.0568016 0.0570944 0.056858 0.0527168 0.0516001 0.0570765 0.056796 0.057097 0.0568521 0.0516096 0.0525144 0.057079 0.056901 0.0514614 0.0526815 0.0571051 0.0568502 0.0513226 0.0570892 0.0525405 0.0568982 0.057084 0.0514594 0.0526883 0.057106 0.0567966 0.0512971 0.0570968 0.052372 0.0567873 0.0511932 0.0571004 0.0571103 0.0513023 0.0567913 0.0525232 0.0571215 0.0525571 0.0511648 0.0567568 0.0571161 0.0527216 0.0571126 0.0510391 0.0566731 0.0525604 0.0571054 0.0511555 0.0567412 0.0527305 0.0571171 0.0510625 0.056741 0.0571194 0.0511769 0.0523838 0.0571239 0.0513185 0.0523948 0.0571172 0.056601 0.0513171 0.0523989 0.0565931 0.057117 0.0510403 0.0566629 0.0571241 0.0511754 0.0530756 0.0571262 0.0565874 0.057133 0.0510471 0.0567394 0.0571231 0.0566687 0.053086 0.0516188 0.0571251 0.056669 0.057128 0.0514798 0.0529302 0.0567385 0.0571413 0.056667 0.0516269 0.0529044 0.0565892 0.0571374 0.0513276 0.0527686 0.0565895 0.0570971 0.0514676 0.0571106 0.0565073 0.0529094 0.0570961 0.0514768 0.0565062 0.0571242 0.0530977 0.0513426 0.0571093 0.057112 0.0564169 0.0516334 0.0571237 0.0531009 0.0564259 0.0516287 0.0571127 0.0570963 0.0564042 0.0570982 0.0531082 0.051641 0.0571103 0.0563309 0.0514773 0.0529145 0.0564995 0.0570966 0.0514859 0.0565043 0.0571223 0.0527665 0.0571208 0.0513463 0.0565007 0.0529344 0.0511819 0.0564111 0.0571186 0.0512116 0.0571294 0.0563123 0.0525749 0.0571446 0.0511878 0.0564089 0.0527473 0.0571308 0.0