# vtk DataFile Version 3.0
vtk output
ASCII
DATASET UNSTRUCTURED_GRID
POINTS 44496 float
0.0113431 0.0253345 0
0.00627102 0.0203585 0
0.0129148 0.0122049 0
0.0153017 0.0116454 0
0.0218788 0.0152673 0
0.0174242 0.0247456 0
0.0113431 0.0253345 0
0 0.00377315 0
0.0129148 0.0122049 0
0.00627102 0.0203585 0
0 0.0202118 0
0 0.00377315 0
0 0 0
0.0153988 0 0
0.0153017 0.0116454 0
0.0129148 0.0122049 0
0 0.00377315 0
0 0 0
0.0253447 0 0
0.0347433 0 0
0.036092 0.0106034 0
0.0243582 0.0143312 0
0.0253447 0 0
0.0238783 0.0148694 0
0.0243582 0.0143312 0
0.036092 0.0106034 0
0.0399705 0.0133885 0
0.0402111 0.017372 0
0.0315002 0.02488 0
0.0238783 0.0148694 0
0.0153988 0 0
0.0253447 0 0
0.0243582 0.0143312 0
0.0238783 0.0148694 0
0.0218788 0.0152673 0
0.0153017 0.0116454 0
0.0153988 0 0
0.0145099 0.0389347 0
0.00769464 0.0340498 0
0.0113431 0.0253345 0
0.0174242 0.0247456 0
0.0223271 0.0316656 0
0.0163765 0.0388138 0
0.0145099 0.0389347 0
0 0.0202118 0
0.00627102 0.0203585 0
0.0113431 0.0253345 0
0.00769464 0.0340498 0
0 0.0353282 0
0 0.0202118 0
0.0174242 0.0247456 0
0.0218788 0.0152673 0
0.0238783 0.0148694 0
0.0315002 0.02488 0
0.0314879 0.0250751 0
0.0236633 0.0316409 0
0.0223271 0.0316656 0
0.0174242 0.0247456 0
0.0236633 0.0316409 0
0.0314879 0.0250751 0
0.0387252 0.0328468 0
0.0363055 0.0391587 0
0.0322682 0.0414081 0
0.0236633 0.0316409 0
0.881682 0.309933 0
0.888433 0.310324 0
0.891665 0.318996 0
0.884199 0.323951 0
0.875148 0.318921 0
0.881682 0.309933 0
0.0347433 0 0
0.0466373 0 0
0.0467997 0.00978644 0
0.0399705 0.0133885 0
0.036092 0.0106034 0
0.0347433 0 0
0.0466373 0 0
0.0585074 0 0
0.0568978 0.0139049 0
0.0568234 0.0139417 0
0.0467997 0.00978644 0
0.0466373 0 0
0.330125 0.432052 0
0.338185 0.42486 0
0.342785 0.4269 0
0.346138 0.435316 0
0.345889 0.436 0
0.3361 0.440602 0
0.33077 0.436448 0
0.330125 0.432052 0
0.0568978 0.0139049 0
0.0585074 0 0
0.0686979 0 0
0.0684697 0.00971696 0
0.0586647 0.0141808 0
0.0568978 0.0139049 0
0.873831 0.301531 0
0.877211 0.301814 0
0.881682 0.309933 0
0.875148 0.318921 0
0.874901 0.318971 0
0.866661 0.3093 0
0.873831 0.301531 0
0.0314879 0.0250751 0
0.0315002 0.02488 0
0.0402111 0.017372 0
0.0455397 0.0221832 0
0.0448206 0.0306887 0
0.0387252 0.0328468 0
0.0314879 0.0250751 0
0.361412 0.408046 0
0.367906 0.41306 0
0.368115 0.420284 0
0.357731 0.423321 0
0.352613 0.418973 0
0.352189 0.416345 0
0.361412 0.408046 0
0.891848 0.30596 0
0.902011 0.306057 0
0.900702 0.31659 0
0.89516 0.320103 0
0.891665 0.318996 0
0.888433 0.310324 0
0.891848 0.30596 0
0.0494363 0.0335171 0
0.0448206 0.0306887 0
0.0455397 0.0221832 0
0.0545375 0.0186344 0
0.0579881 0.0296914 0
0.0494363 0.0335171 0
0.0402111 0.017372 0
0.0399705 0.0133885 0
0.0467997 0.00978644 0
0.0568234 0.0139417 0
0.0545375 0.0186344 0
0.0455397 0.0221832 0
0.0402111 0.017372 0
0.367906 0.41306 0
0.376335 0.407984 0
0.382385 0.412434 0
0.38256 0.420003 0
0.370614 0.422571 0
0.368115 0.420284 0
0.367906 0.41306 0
0.909391 0.290883 0
0.915524 0.281854 0
0.915537 0.281851 0
0.924177 0.287874 0
0.922707 0.295969 0
0.912809 0.296076 0
0.909391 0.290883 0
0.0545375 0.0186344 0
0.0568234 0.0139417 0
0.0568978 0.0139049 0
0.0586647 0.0141808 0
0.0672528 0.0233467 0
0.065737 0.0291534 0
0.0611023 0.0308818 0
0.0579881 0.0296914 0
0.0545375 0.0186344 0
0.342785 0.4269 0
0.352613 0.418973 0
0.357731 0.423321 0
0.357535 0.431769 0
0.346138 0.435316 0
0.342785 0.4269 0
0.912809 0.296076 0
0.922707 0.295969 0
0.924003 0.297718 0
0.922995 0.307416 0
0.911837 0.307387 0
0.909402 0.305264 0
0.912809 0.296076 0
0.0110855 0.0537173 0
0.00778062 0.0472078 0
0.0145099 0.0389347 0
0.0163765 0.0388138 0
0.0221705 0.0454465 0
0.0169532 0.0534387 0
0.0110855 0.0537173 0
0 0.0353282 0
0.00769464 0.0340498 0
0.0145099 0.0389347 0
0.00778062 0.0472078 0
0 0.0449429 0
0 0.0353282 0
0.900276 0.293932 0
0.904118 0.290502 0
0.909391 0.290883 0
0.912809 0.296076 0
0.909402 0.305264 0
0.902404 0.305725 0
0.900276 0.293932 0
0.351146 0.446895 0
0.345889 0.436 0
0.346138 0.435316 0
0.357535 0.431769 0
0.362306 0.435913 0
0.362237 0.441655 0
0.351146 0.446895 0
0.0223271 0.0316656 0
0.0236633 0.0316409 0
0.0322682 0.0414081 0
0.0302094 0.0454486 0
0.0221705 0.0454465 0
0.0163765 0.0388138 0
0.0223271 0.0316656 0
0.00779658 0.0592106 0
0.0110855 0.0537173 0
0.0169532 0.0534387 0
0.0220576 0.0592358 0
0.01824 0.0672267 0
0.0143466 0.0676939 0
0.00779658 0.0592106 0
0.934781 0.297966 0
0.936808 0.305486 0
0.930864 0.310383 0
0.925118 0.309996 0
0.922995 0.307416 0
0.924003 0.297718 0
0.934781 0.297966 0
0 0.0617873 0
0.00779658 0.0592106 0
0.0143466 0.0676939 0
0.010278 0.0722133 0
0 0.0707638 0
0 0.0617873 0
0 0.0449429 0
0.00778062 0.0472078 0
0.0110855 0.0537173 0
0.00779658 0.0592106 0
0 0.0617873 0
0 0.0449429 0
0.01824 0.0672267 0
0.0220576 0.0592358 0
0.0278441 0.0583991 0
0.03397 0.0635438 0
0.0251845 0.0731328 0
0.01824 0.0672267 0
0.0307511 0.046786 0
0.0428592 0.053977 0
0.0339921 0.0635451 0
0.03397 0.0635438 0
0.0278441 0.0583991 0
0.0307511 0.046786 0
0.371031 0.431457 0
0.376507 0.435078 0
0.375916 0.444561 0
0.366742 0.44626 0
0.362237 0.441655 0
0.362306 0.435913 0
0.371031 0.431457 0
0.0169532 0.0534387 0
0.0221705 0.0454465 0
0.0302094 0.0454486 0
0.0307511 0.046786 0
0.0278441 0.0583991 0
0.0220576 0.0592358 0
0.0169532 0.0534387 0
0.924177 0.287874 0
0.929728 0.285075 0
0.938448 0.291961 0
0.934781 0.297966 0
0.924003 0.297718 0
0.922707 0.295969 0
0.924177 0.287874 0
0.0436642 0.0538455 0
0.0457487 0.0447148 0
0.0503909 0.0420756 0
0.056166 0.0444605 0
0.0559481 0.0541393 0
0.0466852 0.0560405 0
0.0436642 0.0538455 0
0.911837 0.307387 0
0.922995 0.307416 0
0.925118 0.309996 0
0.920761 0.320953 0
0.912279 0.319177 0
0.911837 0.307387 0
0.357731 0.423321 0
0.368115 0.420284 0
0.370614 0.422571 0
0.371031 0.431457 0
0.362306 0.435913 0
0.357535 0.431769 0
0.357731 0.423321 0
0.0448206 0.0306887 0
0.0494363 0.0335171 0
0.0503909 0.0420756 0
0.0457487 0.0447148 0
0.0363055 0.0391587 0
0.0387252 0.0328468 0
0.0448206 0.0306887 0
0.307352 0.876862 0
0.316982 0.875126 0
0.321307 0.878475 0
0.31706 0.890615 0
0.310145 0.890363 0
0.304548 0.88145 0
0.307352 0.876862 0
0.909555 0.320768 0
0.900702 0.31659 0
0.902011 0.306057 0
0.902404 0.305725 0
0.909402 0.305264 0
0.911837 0.307387 0
0.912279 0.319177 0
0.909555 0.320768 0
0.0307511 0.046786 0
0.0302094 0.0454486 0
0.0322682 0.0414081 0
0.0363055 0.0391587 0
0.0457487 0.0447148 0
0.0436642 0.0538455 0
0.0428592 0.053977 0
0.0307511 0.046786 0
0.270166 0.447078 0
0.272223 0.45425 0
0.265192 0.461298 0
0.257682 0.457064 0
0.25677 0.449258 0
0.257883 0.447849 0
0.270166 0.447078 0
0.056166 0.0444605 0
0.0606389 0.0425428 0
0.0656553 0.0444106 0
0.0681693 0.0511139 0
0.0640073 0.056608 0
0.0594912 0.0568476 0
0.0559481 0.0541393 0
0.056166 0.0444605 0
0.331749 0.87007 0
0.337007 0.87063 0
0.341058 0.881169 0
0.336546 0.887421 0
0.333951 0.887709 0
0.324058 0.878298 0
0.331749 0.87007 0
0.925118 0.309996 0
0.930864 0.310383 0
0.935166 0.320515 0
0.927924 0.325209 0
0.921737 0.322535 0
0.920761 0.320953 0
0.925118 0.309996 0
0.270166 0.447078 0
0.271457 0.444712 0
0.284625 0.44343 0
0.286171 0.450433 0
0.279658 0.45739 0
0.272223 0.45425 0
0.270166 0.447078 0
0.0494363 0.0335171 0
0.0579881 0.0296914 0
0.0611023 0.0308818 0
0.0606389 0.0425428 0
0.056166 0.0444605 0
0.0503909 0.0420756 0
0.0494363 0.0335171 0
0.321307 0.878475 0
0.324058 0.878298 0
0.333951 0.887709 0
0.326908 0.895593 0
0.321216 0.895479 0
0.31706 0.890615 0
0.321307 0.878475 0
0.935352 0.263649 0
0.935973 0.257645 0
0.943081 0.252127 0
0.946917 0.253835 0
0.948533 0.265449 0
0.946712 0.267456 0
0.935352 0.263649 0
0.257286 0.476859 0
0.256944 0.472851 0
0.266088 0.465952 0
0.272524 0.470244 0
0.273363 0.474551 0
0.264963 0.481941 0
0.257286 0.476859 0
0.0611023 0.0308818 0
0.065737 0.0291534 0
0.0727119 0.0340208 0
0.0732596 0.0373304 0
0.0656553 0.0444106 0
0.0606389 0.0425428 0
0.0611023 0.0308818 0
0.326908 0.895593 0
0.333951 0.887709 0
0.336546 0.887421 0
0.343755 0.895363 0
0.338966 0.904305 0
0.332835 0.904604 0
0.326908 0.895593 0
0.93432 0.264473 0
0.935352 0.263649 0
0.946712 0.267456 0
0.946912 0.271723 0
0.940273 0.278014 0
0.933373 0.276579 0
0.93432 0.264473 0
0.0339921 0.0635451 0
0.0428592 0.053977 0
0.0436642 0.0538455 0
0.0466852 0.0560405 0
0.0477993 0.066277 0
0.0410465 0.0701401 0
0.0339921 0.0635451 0
0.257682 0.457064 0
0.265192 0.461298 0
0.266088 0.465952 0
0.256944 0.472851 0
0.249594 0.466522 0
0.249112 0.463966 0
0.257682 0.457064 0
0.354161 0.874861 0
0.361252 0.875115 0
0.366527 0.887644 0
0.365427 0.889106 0
0.353816 0.890746 0
0.350452 0.880522 0
0.354161 0.874861 0
0.946917 0.253835 0
0.954221 0.250848 0
0.960685 0.257373 0
0.95716 0.264198 0
0.948533 0.265449 0
0.946917 0.253835 0
0.0466852 0.0560405 0
0.0559481 0.0541393 0
0.0594912 0.0568476 0
0.055142 0.0690483 0
0.0547228 0.0691975 0
0.0477993 0.066277 0
0.0466852 0.0560405 0
0.272524 0.470244 0
0.281094 0.462983 0
0.287946 0.466724 0
0.289151 0.470678 0
0.280249 0.479191 0
0.273363 0.474551 0
0.272524 0.470244 0
0.266088 0.465952 0
0.265192 0.461298 0
0.272223 0.45425 0
0.279658 0.45739 0
0.281094 0.462983 0
0.272524 0.470244 0
0.266088 0.465952 0
0.284625 0.44343 0
0.284935 0.44282 0
0.297374 0.439582 0
0.299854 0.441317 0
0.301173 0.445515 0
0.294499 0.454269 0
0.286171 0.450433 0
0.284625 0.44343 0
0.295555 0.457958 0
0.294499 0.454269 0
0.301173 0.445515 0
0.308724 0.449239 0
0.310402 0.45513 0
0.302776 0.461722 0
0.295555 0.457958 0
0.289151 0.470678 0
0.287946 0.466724 0
0.295555 0.457958 0
0.302776 0.461722 0
0.304137 0.468454 0
0.29435 0.473792 0
0.289151 0.470678 0
0.281094 0.462983 0
0.279658 0.45739 0
0.286171 0.450433 0
0.294499 0.454269 0
0.295555 0.457958 0
0.287946 0.466724 0
0.281094 0.462983 0
0.302776 0.461722 0
0.310402 0.45513 0
0.315794 0.457583 0
0.317734 0.467264 0
0.307788 0.470856 0
0.304137 0.468454 0
0.302776 0.461722 0
0.257286 0.476859 0
0.264963 0.481941 0
0.265727 0.486847 0
0.257455 0.493255 0
0.253118 0.491256 0
[...]
CELL_DATA 6400
FIELD FieldData 3
weight 1 6400 float
 0.0553157 0.0552532 0.0552496 0.0553642 0.0554163 0.0553097 0.0553545 0.0552868 0.0553873 0.0554543 0.0550036 0.0554208 0.0554717 0.0551667 0.0555251 0.0551375 0.0554809 0.0554576 0.0549552 0.0555424 0.0554846 0.0555101 0.0549718 0.0555698 0.0552915 0.0548799 0.055395 0.0553215 0.054994 0.0551682 0.0554271 0.0554142 0.0547688 0.055349 0.055319 0.0554832 0.0555211 0.0552177 0.0554633 0.0548514 0.0555759 0.0547861 0.0553344 0.0555285 0.0493148 0.0548573 0.0555215 0.0545614 0.0556219 0.0494863 0.0546548 0.0546819 0.0555818 0.0493307 0.0549708 0.0543028 0.0556271 0.0492691 0.05492 0.0555532 0.0543823 0.049544 0.0549005 0.0556031 0.0544205 0.0545005 0.0547941 0.0547495 0.0545618 0.0546182 0.0546713 0.0541118 0.0495919 0.0541271 0.0547918 0.0542244 0.0556468 0.0496416 0.0547601 0.0555867 0.0538839 0.055582 0.0494311 0.0547917 0.0556491 0.0493834 0.055681 0.0539109 0.0548515 0.0557309 0.0540169 0.0494637 0.0556351 0.0546527 0.05435 0.0556888 0.0491234 0.054723 0.0556352 0.0490749 0.0543255 0.0545905 0.0557155 0.048924 0.0544546 0.0545408 0.0557847 0.0488817 0.0542414 0.0557243 0.0545057 0.0492456 0.0558249 0.0546639 0.0540315 0.0557829 0.0491896 0.0546027 0.0558009 0.0541349 0.0492873 0.0543346 0.0558484 0.0549909 0.0557284 0.0490363 0.0544228 0.0548704 0.0556791 0.0489208 0.0550503 0.0544582 0.0548876 0.0557741 0.0490571 0.0546879 0.0557453 0.0547629 0.0482231 0.0546807 0.0546343 0.055681 0.0484195 0.05456 0.0557358 0.0547525 0.0545251 0.0484727 0.0557933 0.055057 0.0545275 0.0558367 0.0480157 0.0549096 0.0546142 0.0557948 0.0480519 0.0550669 0.0543916 0.0559109 0.0482415 0.0548928 0.0544064 0.0484086 0.0559485 0.0547127 0.054397 0.0558567 0.0485423 0.0549044 0.0543461 0.055888 0.0485755 0.0542237 0.0545365 0.0558359 0.0482293 0.0542436 0.0544242 0.0558868 0.0541627 0.0483591 0.0545374 0.0540309 0.0559381 0.0482536 0.0554267 0.0547647 0.0542264 0.0478543 0.0553536 0.054938 0.0480724 0.0542979 0.0555181 0.0478472 0.0546823 0.0554695 0.0544367 0.0554206 0.0475555 0.0548551 0.0553494 0.0476313 0.0542834 0.0553732 0.0548013 0.0476007 0.0554397 0.0545723 0.0546598 0.0555374 0.0481131 0.0547408 0.0545894 0.0478976 0.0555798 0.0544115 0.0546835 0.0556551 0.0480196 0.0556327 0.0476945 0.0544505 0.0548023 0.0555569 0.0478108 0.0545802 0.054592 0.0477401 0.05551 0.0544715 0.0555887 0.048727 0.0558945 0.0556137 0.0545489 0.0486384 0.055861 0.055295 0.054341 0.0487931 0.0553569 0.0558176 0.054423 0.0484896 0.0554641 0.0557549 0.0546205 0.0483186 0.055402 0.0485511 0.0556619 0.05449 0.0552982 0.0483881 0.05528 0.0486903 0.0557071 0.048819 0.055391 0.0555177 0.0556262 0.0556563 0.0555694 0.0554867 0.0555412 0.0544488 0.0554542 0.055899 0.0487242 0.0542882 0.0556032 0.0559364 0.0544364 0.0484371 0.055686 0.0557578 0.0543362 0.0484972 0.0557077 0.0556831 0.0542532 0.0557475 0.0481269 0.0558058 0.0557958 0.0480466 0.054286 0.0553876 0.0556961 0.0481956 0.0541423 0.0555553 0.0478433 0.0557962 0.0557521 0.0541169 0.0555957 0.0479803 0.0478822 0.0554506 0.0544546 0.0558446 0.0481786 0.0543713 0.0558992 0.0552507 0.0482979 0.0545071 0.055416 0.055941 0.047883 0.0542929 0.0558442 0.0480747 0.0552766 0.0542515 0.0558958 0.0555417 0.0496947 0.0542385 0.0556948 0.0559568 0.055554 0.0496254 0.054138 0.0556863 0.0553857 0.0557366 0.0542309 0.0497237 0.0554056 0.0557846 0.0542379 0.0495544 0.0554226 0.054118 0.0556505 0.0494775 0.0539092 0.0559707 0.0557771 0.0540837 0.0497102 0.0557225 0.0539722 0.0559098 0.0498237 0.0539286 0.0558416 0.0494855 0.056026 0.055902 0.0537575 0.049567 0.0558398 0.0559631 0.0540287 0.0558527 0.0496301 0.0541622 0.0559653 0.0557663 0.0540991 0.049373 0.0558336 0.0539162 0.0492036 0.0560672 0.0558373 0.0540178 0.0492567 0.0559497 0.0559592 0.0492871 0.0538865 0.0559958 0.0490896 0.0558984 0.0538086 0.0558201 0.0558669 0.0538731 0.0489534 0.0559231 0.0558553 0.0539988 0.0559855 0.0490312 0.0557119 0.0559917 0.053628 0.0493596 0.0556207 0.0558892 0.0537847 0.0494316 0.0559392 0.0554765 0.0537374 0.0491415 0.0560213 0.0555706 0.0537111 0.0492492 0.0560382 0.0555271 0.0535541 0.0560982 0.049129 0.0535601 0.0561606 0.0557202 0.0561012 0.0497647 0.0556727 0.0550719 0.0561336 0.0497603 0.0560516 0.0557517 0.0551287 0.0562088 0.0496877 0.0556204 0.05617 0.054954 0.0496217 0.0555751 0.0559637 0.0495756 0.0554306 0.0550305 0.0559985 0.0554562 0.056051 0.0498376 0.0560844 0.0550125 0.0551091 0.0497359 0.0560118 0.0548807 0.055106 0.0560722 0.0497803 0.0547502 0.0549434 0.0561149 0.0549549 0.0548484 0.0495595 0.0561591 0.0552471 0.0549011 0.0562345 0.0496102 0.0552527 0.0562922 0.0494515 0.0547899 0.0551052 0.0561579 0.0492921 0.055253 0.0547621 0.0562008 0.0549797 0.049481 0.0563285 0.0546907 0.0551137 0.0562806 0.0493469 0.0546142 0.0549763 0.05624 0.0562295 0.0547473 0.0492942 0.0548343 0.0563087 0.0562992 0.054601 0.0491294 0.0547041 0.0563705 0.0548062 0.0546863 0.0562662 0.0494159 0.0546745 0.0564158 0.0548196 0.0494439 0.0563388 0.0546471 0.0491321 0.0563667 0.054437 0.0545179 0.0564387 0.0492682 0.0545101 0.0545467 0.0565116 0.0548344 0.0565055 0.0492882 0.0546643 0.0564253 0.04884 0.0548123 0.0564395 0.0488495 0.0565889 0.0545055 0.0484953 0.0565095 0.0546372 0.0563583 0.0486855 0.0546918 0.0563743 0.0486366 0.0564333 0.0552196 0.0564944 0.0488829 0.0553178 0.0564345 0.0553725 0.0490511 0.0563788 0.0552716 0.0564937 0.0486561 0.0550538 0.0565055 0.0551132 0.0565835 0.0487426 0.0551317 0.0566687 0.0488602 0.0553174 0.0565871 0.0482285 0.0565893 0.0553331 0.0485067 0.0566581 0.0552234 0.0565673 0.0483073 0.0551417 0.0479629 0.0567348 0.0550563 0.0480728 0.0566628 0.0548828 0.0480382 0.0560655 0.0549481 0.0483651 0.0560022 0.0549812 0.0483973 0.0560083 0.0548336 0.0561171 0.0485875 0.0547653 0.0561412 0.0481371 0.0560225 0.0546786 0.048114 0.0560774 0.0547272 0.0561575 0.0483451 0.0562045 0.0549716 0.0490902 0.0562375 0.0549119 0.0563138 0.0489192 0.0548067 0.0562232 0.0562885 0.0489274 0.054746 0.056369 0.0563011 0.0486639 0.0573605 0.0560298 0.0573252 0.0488762 0.0560951 0.0573099 0.0561613 0.0573768 0.0487162 0.0560901 0.0574107 0.056024 0.0489553 0.0574677 0.0560922 0.0574097 0.0561675 0.0572943 0.04907 0.0573516 0.0562278 0.0573198 0.0562395 0.0486674 0.0572697 0.0563068 0.0574656 0.0563801 0.0573935 0.0488758 0.0562357 0.0573722 0.0487698 0.0563134 0.0574267 0.0483783 0.056395 0.0575427 0.048539 0.0563893 0.0574866 0.0563936 0.0575275 0.0484751 0.0565416 0.0576298 0.0481471 0.0565319 0.056461 0.0575776 0.0481938 0.0564557 0.0575788 0.0482088 0.0564597 0.0576116 0.0565414 0.0575392 0.04842 0.0566141 0.0574705 0.0567046 0.0574831 0.0485264 0.0576286 0.0567677 0.0576058 0.048402 0.0566903 0.0575466 0.0481778 0.0566272 0.0576039 0.0567213 0.0482357 0.0573236 0.0567836 0.0572463 0.0564724 0.0572067 0.0565471 0.0572507 0.054584 0.0572708 0.05656 0.0573747 0.0564757 0.0573212 0.0545205 0.0565484 0.0573589 0.0571696 0.0566402 0.0572037 0.0566457 0.0546356 0.0571413 0.0567309 0.0571455 0.0567997 0.0572627 0.0544093 0.0566461 0.0572774 0.0572043 0.056736 0.054315 0.0574131 0.0568008 0.057482 0.0544646 0.0574295 0.0575771 0.0568253 0.0545216 0.0575497 0.0552408 0.0574876 0.0552726 0.0544279 0.0575396 0.0551839 0.0573587 0.0553476 0.0574161 0.0545698 0.0553791 0.0573285 0.0551341 0.0572647 0.0544162 0.055326 0.0573124 0.0552463 0.0543672 0.0574525 0.0554645 0.0573807 0.0554286 0.0542767 0.0574214 0.0555334 0.057722 0.0553735 0.0542574 0.0555176 0.0576885 0.0577195 0.0541076 0.05545 0.0550878 0.0576737 0.0541755 0.0551831 0.0576741 0.055242 0.0577788 0.0539513 0.0550495 0.0577603 0.0550237 0.0551273 0.0540097 0.0577754 0.0551941 0.0577585 0.055326 0.0542175 0.0576649 0.057707 0.0552874 0.0554085 0.0576581 0.0542504 0.0577393 0.055473 0.0541184 0.0577305 0.0553943 0.0576986 0.0552275 0.0539337 0.057786 0.0553266 0.0540636 0.0577847 0.0554232 0.0577682 0.055625 0.0539559 0.0577766 0.0555882 0.0540894 0.0577694 0.0556856 0.0577843 0.0577563 0.0557563 0.0543214 0.0577576 0.0577747 0.0556884 0.0544537 0.0577398 0.0556017 0.0543329 0.0577673 0.05555 0.0556679 0.0577363 0.0558188 0.057733 0.0544836 0.0558923 0.0577075 0.054151 0.0559312 0.0576388 0.0542986 0.0576156 0.0557655 0.0575771 0.0557471 0.0541711 0.0576986 0.0558432 0.0576619 0.0559043 0.0576129 0.0543275 0.057666 0.0555264 0.0555894 0.0575178 0.0543074 0.0556881 0.0574917 0.0555031 0.057563 0.0541669 0.0554962 0.0574456 0.0556102 0.0576211 0.0557177 0.0541595 0.0575781 0.0558014 0.0575326 0.0541388 0.0558155 0.057519 0.0540023 0.0558927 0.0576979 0.0556591 0.057716 0.0539921 0.0577232 0.0557358 0.0576598 0.053981 0.0558423 0.0577013 0.0549651 0.0538286 0.0576831 0.0549729 0.057661 0.055107 0.0538424 0.0576454 0.0550354 0.0576237 0.0540072 0.0547821 0.0575795 0.0548868 0.0575777 0.0548685 0.0539909 0.0549683 0.0576125 0.0538319 0.0551615 0.0576127 0.0553613 0.0575615 0.0538311 0.0552418 0.0571311 0.0550678 0.0537917 0.0570782 0.0551585 0.0570651 0.0570065 0.0552764 0.057021 0.0538656 0.0552194 0.0571627 0.0548277 0.0570808 0.0538514 0.0546979 0.0571573 0.0570055 0.0549858 0.0536922 0.0569378 0.0548791 0.0569543 0.0547137 0.0536509 0.0568919 0.0545617 0.0570969 0.0535899 0.0570299 0.0547941 0.0569404 0.0538936 0.0548013 0.0570201 0.0550273 0.0537986 0.0572302 0.0550845 0.0572647 0.0537722 0.0551414 0.0571912 0.0536332 0.054918 0.0573504 0.0537394 0.0548883 0.0573751 0.055014 0.0536457 0.0572881 0.0572757 0.0549839 0.05354 0.0571935 0.0551184 0.0571024 0.053404 0.0554437 0.0570581 0.0534907 0.0554186 0.0571321 0.0555675 0.0572048 0.0555418 0.0570956 0.0532385 0.0554001 0.0571834 0.0533751 0.0552887 0.0568626 0.0568325 0.0553441 0.0532374 0.0567573 0.0554887 0.0568102 0.0532465 0.0566914 0.0556462 0.0534674 0.0568964 0.0556888 0.0568013 0.0535094 0.0557677 0.0568662 0.0533509 0.0545599 0.0567598 0.0556339 0.053289 0.0545286 0.0566293 0.0555755 0.0566865 0.0531466 0.0544183 0.0557461 0.0565555 0.0531996 0.0543758 0.0566362 0.055231 0.0542732 0.0567247 0.0538242 0.0553208 0.0543875 0.0536693 0.0565713 0.0553366 0.0536815 0.0554186 0.0546369 0.0566591 0.0535167 0.0546277 0.0552044 0.0569542 0.0535214 0.0570094 0.0545331 0.0535191 0.0550838 0.0568516 0.0544498 0.0536807 0.0569019 0.0552924 0.0544875 0.0555063 0.053658 0.0571096 0.0536742 0.0543916 0.0570278 0.0555203 0.0535204 0.0570323 0.0544062 0.0556398 0.0535011 0.0569369 0.0556585 0.054379 0.0569533 0.0533546 0.055412 0.0567578 0.0533611 0.0542455 0.0567779 0.0533771 0.0554222 0.0542773 0.0533647 0.0567091 0.0555443 0.0532028 0.0566822 0.0541941 0.0560726 0.0568983 0.0532141 0.0542769 0.0568022 0.0560091 0.053372 0.0542969 0.0568731 0.0561366 0.0532248 0.054128 0.0561506 0.0567295 0.0532126 0.0541104 0.055974 0.0574154 0.0539409 0.0530654 0.0573616 0.0559943 0.057341 0.0541656 0.0560596 0.0530584 0.0574753 0.0561267 0.0541222 0.05303 0.057484 0.0562221 0.0539861 0.0574263 0.0563797 0.0542849 0.0538277 0.0573903 0.056307 0.0572794 0.0539953 0.0542687 0.0572733 0.0562099 0.0538642 0.054116 0.0562758 0.0538228 0.057198 0.0563653 0.0539568 0.0573261 0.0544598 0.0573325 0.0562973 0.0541256 0.054361 0.0572558 0.0559346 0.053943 0.0543059 0.0574929 0.056089 0.0540883 0.0560258 0.0543358 0.0575335 0.054076 0.057433 0.0558798 0.0541581 0.0574475 0.0560516 0.0539294 0.0541799 0.0575409 0.0559922 0.0538673 0.0541878 0.0562396 0.05752 0.0561848 0.0542171 0.053815 0.0563292 0.0574129 0.0541365 0.0539763 0.0561435 0.0574786 0.054054 0.0538033 0.0562038 0.0573819 0.0539995 0.0537913 0.0562634 0.0572384 0.0539559 0.0562899 0.0536537 0.0572624 0.0539904 0.0564508 0.0573128 0.0536469 0.0540248 0.0573457 0.0564604 0.0536409 0.0573678 0.0566176 0.0537866 0.0539077 0.0565317 0.0572779 0.0537188 0.0564251 0.0572971 0.0535813 0.0565093 0.0537353 0.0571803 0.0536297 0.0565685 0.0571074 0.053798 0.0534762 0.0566014 0.0571031 0.0539303 0.0534382 0.057025 0.0567188 0.0571925 0.0538295 0.054006 0.0566867 0.0571086 0.0537299 0.053826 0.0567868 0.0569466 0.0537988 0.0566551 0.0568676 0.0540047 0.0536263 0.0567417 0.0568314 0.0537227 0.0570217 0.056816 0.053601 0.0538572 0.0569588 0.0563847 0.056481 0.0536711 0.0568695 0.053453 0.0565416 0.0569549 0.0535435 0.0537444 0.0571854 0.056356 0.0571112 0.0539096 0.0564438 0.0536703 0.0564661 0.0540942 0.0572268 0.0566737 0.0571736 0.0539596 0.0536112 0.0566273 0.0570865 0.0538031 0.0535294 0.0536824 0.0571487 0.0567986 0.0535632 0.0570392 0.0538502 0.0533737 0.0567448 0.0570111 0.053763 0.0535259 0.0567189 0.0536647 0.0568971 0.0532282 0.0565725 0.0536468 0.0570691 0.0534188 0.0565254 0.0570063 0.053645 0.0531776 0.0566346 0.0569878 0.0534488 0.0532441 0.0566947 0.0536231 0.0568975 0.0533155 0.0559445 0.0534684 0.0569107 0.0558321 0.0534613 0.0536601 0.0577607 0.0559946 0.0535024 0.0531946 0.0557782 0.0534999 0.0577366 0.0533863 0.0558958 0.0577294 0.055851 0.0530981 0.0533439 0.0576949 0.0559615 0.0534664 0.0560933 0.0530566 0.0576562 0.0561568 0.0534747 0.0576416 0.0532436 0.0560636 0.0576959 0.0534936 0.0533134 0.0561914 0.0576618 0.0534915 0.0561067 0.0533241 0.0577549 0.0533333 0.0559781 0.0577256 0.0532722 0.0533418 0.0562131 0.0577062 0.053323 0.0531731 0.0576314 0.0557301 0.0533006 0.0576859 0.0531022 0.0558871 0.0576589 0.0532989 0.0576015 0.0557866 0.0543015 0.0531114 0.0575466 0.0558898 0.0531335 0.0542385 0.0576186 0.0556554 0.0531751 0.0575978 0.0531824 0.0540953 0.0555744 0.0531588 0.0540899 0.0575041 0.053033 0.0574439 0.0540063 0.0557691 0.0530238 0.0574716 0.0539541 0.0556993 0.0575252 0.0528701 0.055803 0.0540316 0.0575687 0.0529224 0.0559821 0.0575817 0.0539192 0.0530177 0.0560815 0.0575376 0.0529541 0.0538867 0.0560819 0.0575025 0.0528422 0.0559596 0.0574455 0.0536111 0.0575106 0.0558936 0.052757 0.0537135 0.0574292 0.0560457 0.0527683 0.0538171 0.0576794 0.0530453 0.0562917 0.053831 0.0563114 0.0532673 0.057663 0.0540336 0.0531393 0.0576181 0.0563758 0.053722 0.053043 0.0576283 0.0564258 0.0538987 0.0529765 0.0575826 0.0561738 0.0538098 0.0528525 0.057634 0.0563626 0.0536471 0.0528455 0.057563 0.0562605 0.0575859 0.053592 0.0529622 0.0565754 0.057587 0.0535935 0.0527026 0.0564747 0.053712 0.0575526 0.0529061 0.0535538 0.0566276 0.0575054 0.0527804 0.0534546 0.0564084 0.0575316 0.0575316 0.0534259 0.0525907 0.0565651 0.0574538 0.0533632 0.0527933 0.0565263 0.0575244 0.0575055 0.0564653 0.0526925 0.053808 0.056185 0.0574003 0.0526556 0.0536979 0.0574719 0.0562191 0.0536741 0.0526315 0.0573857 0.0563032 0.0574556 0.0534984 0.0525182 0.0561158 0.057441 0.0535607 0.0574716 0.05268 0.0561135 0.0534629 0.057383 0.0563566 0.0525501 0.0574039 0.0536067 0.0573778 0.0524527 0.056502 0.053402 0.0573334 0.0533997 0.0563892 0.0524829 0.057309 0.053365 0.056271 0.0523576 0.0532196 0.0573476 0.0532396 0.0561691 0.0529478 0.0574325 0.0534324 0.0573839 0.0563081 0.0530688 0.0534453 0.0572437 0.0564054 0.0533354 0.0530563 0.0573054 0.0532658 0.0527816 0.0562833 0.0573196 0.0532518 0.0565766 0.0527428 0.0572309 0.0530744 0.0565924 0.0573824 0.0528746 0.0530869 0.0567152 0.057296 0.0566736 0.0531537 0.0530933 0.0573757 0.0566645 0.0532882 0.0530007 0.057355 0.0567311 0.0530562 0.0573088 0.052963 0.0566521 0.0530666 0.0572359 0.056731 0.0527721 0.0530778 0.0572362 0.0568604 0.0567977 0.0572202 0.0528957 0.052915 0.0568073 0.0571602 0.0568717 0.0529115 0.0528248 0.0527003 0.0567877 0.052867 0.057118 0.0526237 0.0569312 0.057157 0.0534401 0.0567618 0.0526663 0.053444 0.0566693 0.0524982 0.0570549 0.0568468 0.0532491 0.0570793 0.0568226 0.0523446 0.0533978 0.0571636 0.0567518 0.0524962 0.0570831 0.053257 0.0568354 0.0523311 0.0570879 0.0532708 0.0525844 0.0571632 0.0567436 0.0530661 0.0526257 0.0568361 0.0570148 0.0530765 0.0569124 0.0523964 0.0570895 0.0569309 0.053267 0.0570064 0.0524461 0.0568874 0.0572808 0.0569593 0.053224 0.053058 0.0569828 0.0573293 0.0529686 0.0530561 0.0572261 0.0569496 0.0531385 0.0528959 0.0573138 0.0571072 0.0529246 0.0571849 0.0526937 0.0571485 0.0570608 0.052862 0.0531102 0.0572422 0.0527486 0.0570105 0.0528105 0.0572926 0.0569222 0.0529125 0.0530789 0.0568731 0.0572581 0.0569338 0.0572006 0.0528771 0.0530668 0.0569791 0.0571379 0.0529053 0.0569976 0.052822 0.0571059 0.0569989 0.0527568 0.0571686 0.0570089 0.0528727 0.0571409 0.0527402 0.0570712 0.0570662 0.0526733 0.0570389 0.0526368 0.0570897 0.0525123 0.0570611 0.0570922 0.0528717 0.0569987 0.0525432 0.0570794 0.0569965 0.0522995 0.0527262 0.0571003 0.0569876 0.0524657 0.0529191 0.0572303 0.0570661 0.052342 0.0571649 0.052701 0.0569854 0.0525935 0.0571408 0.0570443 0.0524366 0.052554 0.0570678 0.0569482 0.0525898 0.052477 0.0570927 0.0570162 0.0571514 0.0524103 0.0524732 0.057164 0.052248 0.0569162 0.0531011 0.0571417 0.0523997 0.0569013 0.052884 0.0572723 0.0522524 0.0572167 0.0528834 0.0568687 0.0521558 0.057188 0.05277 0.0575126 0.0572481 0.0522255 0.0528818 0.0574645 0.0572808 0.052123 0.0527042 0.0574616 0.0573379 0.0519507 0.0526966 0.0574275 0.0572319 0.051922 0.0527146 0.057449 0.0573185 0.0525238 0.0522232 0.0573991 0.0573926 0.0526683 0.0573419 0.0522694 0.0573743 0.0568247 0.0524671 0.0520917 0.0569093 0.0573366 0.0523308 0.052031 0.0569535 0.052488 0.0573806 0.0518891 0.0568499 0.0572413 0.0526156 0.0519453 0.0573155 0.0568666 0.0525961 0.0517967 0.0572756 0.0569381 0.052369 0.05161 0.0572662 0.057002 0.0524839 0.0572082 0.0517058 0.0570421 0.0523293 0.0573267 0.0514743 0.0570514 0.0524683 0.0570094 0.0516007 0.0573898 0.0522215 0.0570794 0.0573344 0.052307 0.0514122 0.0570991 0.0572543 0.0522611 0.0518334 0.0571364 0.0572714 0.0521039 0.0571822 0.0516998 0.057203 0.0521446 0.0572104 0.0517425 0.0568923 0.0572759 0.0569641 0.0519941 0.0515077 0.0572122 0.0570512 0.0521132 0.0571457 0.0515273 0.0519114 0.0569183 0.0571397 0.0521143 0.0571435 0.0569909 0.0518671 0.0521337 0.0570113 0.0570689 0.0518424 0.0521898 0.0571175 0.0571633 0.0516601 0.0571671 0.0519486 0.0571989 0.0571983 0.051959 0.0519905 0.0571284 0.0520256 0.0570854 0.0516097 0.0571913 0.0571619 0.0520555 0.051649 0.0570448 0.0570846 0.0517963 0.0571147 0.0517724 0.0572335 0.0570882 0.0518455 0.0521274 0.0571659 0.0570382 0.0518662 0.0519116 0.0570177 0.0571873 0.0517828 0.0569514 0.0572818 0.0515656 0.0522658 0.057255 0.0517651 0.0568775 0.0520081 0.0572321 0.0515936 0.0569386 0.0573065 0.0517741 0.0573445 0.0569657 0.0514332 0.0574155 0.0520503 0.0568807 0.0515817 0.0573527 0.0518406 0.0568489 0.0513704 0.0574752 0.0514572 0.0571323 0.0570654 0.0516185 0.0574076 0.0512999 0.0570557 0.057387 0.0516763 0.0514672 0.057072 0.0574545 0.0511079 0.0515 0.0569067 0.0574908 0.0512556 0.0569866 0.0514626 0.0572602 0.0513697 0.056984 0.051368 0.0572599 0.0569091 0.0516311 0.0573297 0.0569768 0.0528596 0.0515924 0.0573529 0.0568297 0.0526728 0.0573154 0.0517082 0.0568327 0.0527288 0.0572893 0.0513919 0.0568932 0.0573557 0.0525757 0.0514639 0.0567782 0.0573842 0.0525353 0.0574489 0.0515562 0.0572275 0.0574186 0.0527195 0.0522567 0.0571425 0.0575364 0.0524979 0.0571802 0.0574863 0.0526472 0.0524734 0.0571318 0.0574157 0.0570937 0.0521912 0.0525935 0.0574781 0.057075 0.0525738 0.0522693 0.0570378 0.0575075 0.0524343 0.0569918 0.0520501 0.0571352 0.0524947 0.057057 0.0571791 0.0525497 0.0570425 0.0523835 0.0572023 0.0571815 0.0569863 0.0523508 0.052523 0.056936 0.0572433 0.0522153 0.052678 0.0568768 0.0572596 0.0521956 0.0569709 0.057333 0.0523298 0.0522892 0.0569707 0.0572637 0.0523987 0.0524427 0.0572194 0.0522134 0.0569166 0.0572174 0.0523237 0.0525883 0.057273 0.0568776 0.0572934 0.05693 0.0521388 0.051773 0.0573831 0.0520942 0.0568147 0.0518905 0.0573192 0.0521224 0.0573428 0.0567633 0.052117 0.0520101 0.056868 0.0573286 0.0519273 0.0568281 0.0573479 0.0524747 0.0568076 0.05159 0.0573584 0.0523752 0.0567137 0.0519352 0.0574239 0.0523267 0.0567726 0.0574457 0.0517651 0.0521955 0.0567218 0.0574926 0.0522566 0.0522839 0.0569876 0.0574073 0.0521146 0.0522905 0.0574049 0.0569005 0.0523273 0.0521629 0.0573733 0.0568975 0.0519393 0.0574171 0.0522217 0.0568975 0.0574536 0.0521264 0.05681 0.0521009 0.0575111 0.0567977 0.0522431 0.0574956 0.0567054 0.0519624 0.0509434 0.0568138 0.0575466 0.0520298 0.0509468 0.0568233 0.0573095 0.0522