# vtk DataFile Version 3.0
vtk output
ASCII
DATASET UNSTRUCTURED_GRID
POINTS 23029 float
0 0.0932227 0
1 0.715914 0
1 1 0
0 1 0
0 0.0932227 0
0 0.243653 0
1 0.700807 0
1 1 0
0 1 0
0 0.243653 0
0 0 0
1 0 0
1 1 0
0 1 0
0 0 0
0 0 0
1 0 0
1 1 0
0 1 0
0 0 0
0 0 0
1 0 0
1 1 0
0 1 0
0 0 0
0 0.0912064 0
0.269545 0.241178 0
1 0.661158 0
1 1 0
0 1 0
0 0.0912064 0
0.610028 0 0
1 0 0
1 0.411194 0
0.924058 0.334887 0
0.610028 0 0
0 0 0
1 0 0
1 1 0
0 1 0
0 0 0
0 0 0
1 0 0
1 1 0
0 1 0
0 0 0
0 0 0
1 0 0
1 1 0
0 1 0
0 0 0
0.620592 0 0
1 0 0
1 0.412105 0
0.924734 0.334231 0
0.620592 0 0
0 0 0
1 0 0
1 1 0
0 1 0
0 0 0
0 0 0
1 0 0
1 1 0
0 1 0
0 0 0
0 0 0
1 0 0
1 1 0
0 1 0
0 0 0
0 0.715148 0
0.422932 1 0
0 1 0
0 0.715148 0
0 0 0
1 0 0
1 1 0
0 1 0
0 0 0
0 0 0
1 0 0
1 1 0
0 1 0
0 0 0
0.747401 0 0
1 0 0
1 0.33612 0
0.791902 0.0623411 0
0.747401 0 0
0 0 0
1 0 0
1 1 0
0 1 0
0 0 0
0 0.594266 0
0.479637 0.909973 0
0.499241 0.923713 0
0.602774 1 0
0 1 0
0 0.594266 0
0 0 0
1 0 0
1 1 0
0 1 0
0 0 0
0 0 0
1 0 0
1 1 0
0 1 0
0 0 0
0 0 0
1 0 0
1 1 0
0 1 0
0 0 0
0 0.692876 0
0.473226 1 0
0 1 0
0 0.692876 0
0.0540384 0 0
1 0 0
1 0.705462 0
0.0540384 0 0
0 0 0
1 0 0
1 1 0
0 1 0
0 0 0
0 0 0
1 0 0
1 1 0
0 1 0
0 0 0
0 0 0
1 0 0
1 1 0
0 1 0
0 0 0
0 0.84932 0
0.349168 1 0
0 1 0
0 0.84932 0
0 0 0
1 0 0
1 1 0
0 1 0
0 0 0
0.381232 0 0
1 0 0
1 0.507096 0
0.415169 0.0294247 0
0.381232 0 0
0 0 0
1 0 0
1 1 0
0 1 0
0 0 0
0 0.661804 0
0.548676 1 0
0 1 0
0 0.661804 0
0.786264 0 0
1 0 0
1 0.298901 0
0.807171 0.030971 0
0.786264 0 0
0 0.677604 0
0.541613 1 0
0 1 0
0 0.677604 0
0 0 0
1 0 0
1 1 0
0 1 0
0 0 0
0.731756 0 0
1 0 0
1 0.366868 0
0.731756 0 0
0 0 0
1 0 0
1 1 0
0 1 0
0 0 0
0 0 0
1 0 0
1 1 0
0 1 0
0 0 0
0 0 0
1 0 0
1 1 0
0 1 0
0 0 0
0 0.419393 0
0.708819 0.99315 0
0.716942 1 0
0 1 0
0 0.419393 0
0 0 0
1 0 0
1 1 0
0 1 0
0 0 0
0.567973 0 0
1 0 0
1 0.442883 0
0.567973 0 0
0 0 0
1 0 0
1 1 0
0 1 0
0 0 0
0 0.346894 0
0.552443 0.819237 0
0.755474 1 0
0 1 0
0 0.346894 0
0 0 0
1 0 0
1 1 0
0 1 0
0 0 0
0 0 0
1 0 0
1 1 0
0 1 0
0 0 0
0 0 0
1 0 0
1 1 0
0 1 0
0 0 0
0.816533 0 0
1 0 0
1 0.289711 0
0.95741 0.225286 0
0.816533 0 0
0 0.357001 0
0.561436 0.816992 0
0.775969 1 0
0 1 0
0 0.357001 0
0 0 0
1 0 0
1 1 0
0 1 0
0 0 0
0 0 0
1 0 0
1 1 0
0 1 0
0 0 0
0 0 0
1 0 0
1 1 0
0 1 0
0 0 0
0.937907 0 0
1 0 0
1 0.130784 0
0.937907 0 0
0 0.625735 0
0.487109 0.904559 0
0.508814 0.917819 0
0.636614 1 0
0 1 0
0 0.625735 0
0 0 0
1 0 0
1 1 0
0 1 0
0 0 0
0 0 0
1 0 0
1 1 0
0 1 0
0 0 0
0 0 0
1 0 0
1 1 0
0 1 0
0 0 0
0.952283 0 0
1 0 0
1 0.0741126 0
0.952283 0 0
0 0.78224 0
0.233964 0.882337 0
0.497433 1 0
0 1 0
0 0.78224 0
0 0 0
1 0 0
1 1 0
0 1 0
0 0 0
0 0 0
1 0 0
1 1 0
0 1 0
0 0 0
0 0 0
1 0 0
1 1 0
0 1 0
0 0 0
0.828582 0 0
1 0 0
1 0.238529 0
0.828582 0 0
0 0 0
1 0 0
1 1 0
0 1 0
0 0 0
0.966155 0 0
1 0 0
1 0.0767182 0
0.966155 0 0
0 0 0
1 0 0
1 1 0
0 1 0
0 0 0
0 0 0
1 0 0
1 1 0
0 1 0
0 0 0
0 0.878374 0
0.218984 1 0
0 1 0
0 0.878374 0
0 0 0
1 0 0
1 1 0
0 1 0
0 0 0
0.998552 0 0
1 0 0
1 0.00242677 0
0.998552 0 0
0 0 0
1 0 0
1 1 0
0 1 0
0 0 0
0 0 0
1 0 0
1 1 0
0 1 0
0 0 0
0 0.804157 0
0.380882 0.961148 0
0.469092 1 0
0 1 0
0 0.804157 0
0.422611 0 0
1 0 0
1 0.507593 0
0.422611 0 0
0 0 0
1 0 0
1 1 0
0 1 0
0 0 0
0 0 0
1 0 0
1 1 0
0 1 0
0 0 0
0.592311 0 0
1 0 0
1 0.448377 0
0.592311 0 0
0 0 0
1 0 0
1 1 0
0 1 0
0 0 0
0 0 0
1 0 0
1 1 0
0 1 0
0 0 0
0 0 0
1 0 0
1 1 0
0 1 0
0 0 0
0 0 0
1 0 0
1 1 0
0 1 0
0 0 0
0 0.63539 0
0.26215 0.878373 0
0.386819 1 0
0 1 0
0 0.63539 0
0 0 0
1 0 0
1 1 0
0 1 0
0 0 0
0.716875 0 0
1 0 0
1 1 0
0.259612 1 0
0.716875 0 0
0 0 0
1 0 0
1 1 0
0 1 0
0 0 0
0 0.60609 0
0.289861 0.876192 0
0.41616 1 0
0 1 0
0 0.60609 0
0 0 0
1 0 0
1 1 0
0 1 0
0 0 0
0 0.682102 0
0.434972 1 0
0 1 0
0 0.682102 0
0.48861 0 0
1 0 0
1 0.877965 0
0.48861 0 0
0.799422 0 0
1 0 0
1 0.11935 0
0.799422 0 0
0.450508 0 0
1 0 0
1 0.513328 0
0.450508 0 0
0 0.853874 0
0.281248 1 0
0 1 0
0 0.853874 0
0.722501 0 0
1 0 0
1 1 0
0.304664 1 0
0.722501 0 0
0.836274 0 0
1 0 0
1 0.267737 0
0.836274 0 0
0 0.823421 0
0.210906 1 0
0 1 0
0 0.823421 0
0.816322 0 0
1 0 0
1 0.283322 0
0.819613 0.00541067 0
0.816322 0 0
0.834624 0 0
1 0 0
1 0.0905978 0
0.834624 0 0
0 0.8594 0
0.289383 1 0
0 1 0
0 0.8594 0
0.966033 0 0
1 0 0
1 0.068136 0
0.966033 0 0
0 0 0
0.0587731 0 0
0 0.0381502 0
0 0 0
0 0.73842 0
0.455025 1 0
0 1 0
0 0.73842 0
0.93594 0 0
1 0 0
1 0.137622 0
0.93594 0 0
0.703411 0 0
1 0 0
1 0.389347 0
0.942219 0.317266 0
0.703411 0 0
0.994655 0 0
1 0 0
1 0.00283903 0
0.994655 0 0
0 0.741859 0
0.412423 1 0
0 1 0
0 0.741859 0
0.858892 0 0
1 0 0
1 0.245867 0
0.858892 0 0
0 0.890565 0
0.271835 1 0
0 1 0
0 0.890565 0
0.952228 0 0
1 0 0
1 0.0728912 0
0.955493 0.00538382 0
0.952228 0 0
0 0 0
0.0998412 0 0
0.0755923 0.00981717 0
0 0.0380718 0
0 0 0
0 0.670452 0
0.584091 1 0
0 1 0
0 0.670452 0
0.830492 0 0
1 0 0
1 0.23185 0
0.830492 0 0
0 0 0
0.378601 0 0
0 0.19316 0
0 0 0
0 0.911467 0
0.192169 1 0
0 1 0
0 0.911467 0
0.961101 0 0
1 0 0
1 0.0220429 0
0.961101 0 0
0 0.850101 0
0.369514 1 0
0 1 0
0 0.850101 0
0 0.88249 0
0.307986 1 0
0 1 0
0 0.88249 0
0.94584 0 0
1 0 0
1 0.0622524 0
0.94584 0 0
0 0.729363 0
0.501649 0.555319 0
0.931131 1 0
0 1 0
0 0.729363 0
0 0.825643 0
1 0.253766 0
1 1 0
0 1 0
0 0.825643 0
0.89773 0 0
1 0 0
1 0.0342142 0
0.89773 0 0
0 0.286726 0
0.373996 0.595482 0
0.712021 0.887062 0
0.836301 1 0
0 1 0
0 0.286726 0
0.84096 0 0
1 0 0
1 0.106232 0
0.84096 0 0
0 0.592411 0
0.639678 1 0
0 1 0
0 0.592411 0
0 0.578332 0
0.61958 1 0
0 1 0
0 0.578332 0
0.842884 0 0
1 0 0
1 0.0582395 0
0.842884 0 0
0 0.423746 0
0.544588 0.821199 0
0.779849 1 0
0 1 0
0 0.423746 0
0 0 0
0.413647 0 0
0 0.224354 0
0 0 0
0.848328 0 0
1 0 0
1 0.105106 0
0.848328 0 0
0 0 0
0.444933 0 0
0 0.171267 0
0 0 0
0 0.776488 0
0.301029 0.571571 0
0.602123 0.374344 0
1 0.613104 0
1 1 0
0 1 0
0 0.776488 0
0.81074 0 0
1 0 0
1 0.0524017 0
0.81074 0 0
0 0.738521 0
1 0.235682 0
1 1 0
0 1 0
0 0.738521 0
0 0.883374 0
0.903136 0.539607 0
1 0.505869 0
1 1 0
0 1 0
0 0.883374 0
0.407705 0 0
1 0 0
1 0.348104 0
0.936446 0.311982 0
0.407705 0 0
0 0.811499 0
0.085941 0.787464 0
1 0.550862 0
1 1 0
0 1 0
0 0.811499 0
0.484251 0 0
1 0 0
1 0.231175 0
0.484251 0 0
0 0.866552 0
0.897646 0.536673 0
1 0.502251 0
1 1 0
0 1 0
0 0.866552 0
0.792383 0 0
1 0 0
1 0.212985 0
0.792383 0 0
0.474228 0 0
1 0 0
1 0.26006 0
0.474228 0 0
0 0.745003 0
0.279758 0.55201 0
0.600667 0.338583 0
1 0.595525 0
1 1 0
0 1 0
0 0.745003 0
0.674816 0 0
1 0 0
1 0.126376 0
0.840326 0.0679362 0
0.674816 0 0
0 0.70668 0
0.589166 1 0
0 1 0
0 0.70668 0
0.626185 0 0
1 0 0
1 0.233663 0
0.626185 0 0
0 0.575811 0
0.718954 1 0
0 1 0
0 0.575811 0
0.988654 0.0689163 0
0.81459 0 0
1 0 0
1 0.0732246 0
0.988654 0.0689163 0
0 0.619277 0
0.63923 1 0
0 1 0
0 0.619277 0
0.465408 0 0
1 0 0
1 0.28465 0
0.465408 0 0
0 0.692841 0
0.649826 1 0
0 1 0
0 0.692841 0
0.535506 0 0
1 0 0
1 0.236412 0
0.762562 0.121416 0
0.535506 0 0
0 0.721981 0
0.46495 1 0
0 1 0
0 0.721981 0
0.511819 0 0
1 0 0
1 0.34692 0
0.63963 0.093824 0
0.511819 0 0
0.712529 0 0
1 0 0
1 1 0
0.218024 1 0
0.239256 0.954866 0
0.712529 0 0
0 0.718855 0
0.63018 1 0
0 1 0
0 0.718855 0
0.117708 0 0
1 0 0
1 0.722013 0
0.5067 0.329591 0
0.117708 0 0
0 0.619248 0
0.670211 1 0
0 1 0
0 0.619248 0
0.546506 0 0
1 0 0
1 0.490521 0
0.546506 0 0
0 0.84594 0
0.852677 0.512647 0
1 0.459693 0
1 1 0
0 1 0
0 0.84594 0
0.749062 0 0
1 0 0
1 1 0
0.340927 1 0
0.695538 0.124552 0
0.749062 0 0
0 0.855139 0
0.881108 0.527837 0
1 0.487358 0
1 1 0
0 1 0
0 0.855139 0
0 0.241748 0
0.987602 1 0
0 1 0
0 0.241748 0
0.787918 0 0
1 0 0
1 0.161966 0
0.787918 0 0
0.856249 0 0
1 0 0
1 1 0
0.420572 1 0
0.856249 0 0
0.205017 0 0
1 0 0
1 0.728344 0
0.205017 0 0
0 0.314117 0
0.385412 0.593324 0
0.741302 0.862172 0
0.914554 1 0
0 1 0
0 0.314117 0
0.728096 0 0
1 0 0
1 0.378424 0
0.948833 0.310848 0
0.728096 0 0
0 0.83511 0
0.906918 0.546363 0
1 0.518556 0
1 1 0
0 1 0
0 0.83511 0
0 0.778739 0
1 0.450251 0
1 1 0
0 1 0
0 0.778739 0
0.920675 0 0
1 0 0
1 0.143557 0
0.920675 0 0
0 0 0
1 0 0
1 1 0
0 1 0
0 0 0
0 0 0
1 0 0
1 1 0
0 1 0
0 0 0
0.57789 0 0
1 0 0
1 0.485609 0
0.57789 0 0
0 0 0
1 0 0
1 1 0
0 1 0
0 0 0
0 0 0
1 0 0
1 1 0
0 1 0
0 0 0
0 0 0
1 0 0
1 1 0
0 1 0
0 0 0
0.676895 0 0
1 0 0
1 0.435135 0
0.676895 0 0
0 0 0
1 0 0
1 1 0
0 1 0
0 0 0
0 0 0
1 0 0
1 1 0
0 1 0
0 0 0
0 0 0
1 0 0
1 1 0
0 1 0
0 0 0
0.815185 0 0
1 0 0
1 0.322679 0
0.815185 0 0
0 0 0
1 0 0
1 1 0
0 1 0
0 0 0
0 0 0
1 0 0
1 1 0
0 1 0
0 0 0
0.994209 0 0
1 0 0
1 0.00357881 0
0.994209 0 0
0 0 0
1 0 0
1 1 0
0 1 0
0 0 0
0 0 0
1 0 0
1 1 0
0 1 0
0 0 0
0 0 0
1 0 0
1 1 0
0 1 0
0 0 0
0.751606 0 0
1 0 0
1 1 0
0.324484 1 0
0.695669 0.124601 0
0.751606 0 0
0 0 0
1 0 0
1 1 0
0 1 0
0 0 0
0 0 0
1 0 0
1 1 0
0 1 0
0 0 0
0 0 0
1 0 0
1 1 0
0 1 0
0 0 0
0.751084 0 0
1 0 0
1 0.0851828 0
0.751084 0 0
0 0 0
1 0 0
1 1 0
0 1 0
0 0 0
0 0 0
1 0 0
1 1 0
0 1 0
0 0 0
0.898231 0 0
1 0 0
1 1 0
0.602929 1 0
0.898231 0 0
0 0 0
1 0 0
1 1 0
0 1 0
0 0 0
0 0 0
1 0 0
1 1 0
0 1 0
0 0 0
0 0 0
1 0 0
1 1 0
0 1 0
0 0 0
0.751008 0 0
1 0 0
1 1 0
0.308869 1 0
0.693571 0.123808 0
0.751008 0 0
0 0 0
1 0 0
1 1 0
0 1 0
0 0 0
0.706402 0 0
1 0 0
1 0.231708 0
0.894834 0.150601 0
0.706402 0 0
0 0 0
1 0 0
1 1 0
0 1 0
0 0 0
0 0 0
1 0 0
1 1 0
0 1 0
0 0 0
0 0 0
1 0 0
1 1 0
0 1 0
0 0 0
0 0 0
1 0 0
1 1 0
0 1 0
0 0 0
0.568346 0 0
1 0 0
1 0.437226 0
0.568346 0 0
0 0 0
1 0 0
1 1 0
0 1 0
0 0 0
0.337487 0 0
1 0 0
1 1 0
0.825152 1 0
0.337487 0 0
0 0 0
1 0 0
1 1 0
0 1 0
0 0 0
0 0 0
1 0 0
1 1 0
0 1 0
0 0 0
0 0 0
1 0 0
1 1 0
0 1 0
0 0 0
0 0 0
1 0 0
1 1 0
0 1 0
0 0 0
0.893664 0 0
1 0 0
1 1 0
0.57362 1 0
0.893664 0 0
0.593302 0 0
1 0 0
1 0.239568 0
0.593302 0 0
0.364699 0 0
1 0 0
1 0.660688 0
0.364699 0 0
0.509906 0 0
1 0 0
1 0.265353 0
0.741975 0.131999 0
0.509906 0 0
0 0 0
1 0 0
1 1 0
0 1 0
0 0 0
0 0 0
1 0 0
1 1 0
0 1 0
0 0 0
0.634123 0 0
1 0 0
1 0.469605 0
0.634123 0 0
0 0 0
1 0 0
1 1 0
0 1 0
0 0 0
0.585318 0 0
1 0 0
1 0.308948 0
0.976128 0.291939 0
0.585318 0 0
0 0 0
1 0 0
1 1 0
0 1 0
0 0 0
0 0 0
1 0 0
1 1 0
0 1 0
0 0 0
0 0 0
1 0 0
1 1 0
0 1 0
0 0 0
0 0 0
1 0 0
1 1 0
0 1 0
0 0 0
0.651389 0 0
1 0 0
1 0.153597 0
0.709061 0.0268969 0
[...]
CELL_DATA 4584
FIELD FieldData 3
weight 1 4584 float
 1.06541 1.05942 1.15926 1.15944 1.1529 1.07202 0.884463 1.15945 1.15334 1.15293 0.884338 1.15959 1.1656 1.15944 0.909526 1.15297 1.15295 0.87794 1.14702 0.940534 1.15961 1.15929 1.15333 0.934296 0.903318 1.15939 1.15322 1.15958 0.903164 1.16572 0.903001 1.15924 0.934193 0.859204 0.928039 1.16583 0.871695 1.17183 1.17211 1.15956 0.965728 1.15927 0.890381 1.16547 0.95297 1.15931 1.16581 1.16576 0.865815 0.959625 1.16566 1.15301 1.15937 0.847093 0.946819 1.17187 1.17196 1.16542 0.828358 0.921823 1.16541 1.15923 1.16556 0.85299 1.16582 0.834236 1.16562 1.16555 0.884431 1.17173 0.809364 1.16579 1.16542 0.947089 0.897001 1.17176 1.16562 0.890859 1.16574 1.17199 1.17168 1.17198 0.890493 1.17794 0.915715 1.17816 0.909158 1.17832 0.915647 0.934516 0.803001 0.896891 0.909511 0.928209 0.847001 0.8782 0.853281 0.79692 0.915504 0.821937 0.721947 0.921735 0.840491 0.865451 0.784139 0.902934 0.84039 0.896887 0.809314 0.80926 0.984515 0.834325 0.815395 0.884205 0.790874 0.92834 0.909492 0.802945 0.959547 0.971633 0.834602 0.965861 0.815566 0.940473 0.934517 0.840522 0.940683 0.828007 0.728036 0.853098 0.984348 0.846897 1.05334 0.978102 0.878357 0.99047 0.865786 0.996705 0.803338 0.871664 1.04678 0.859549 0.940686 0.853313 0.977934 0.846726 0.934573 0.877938 0.965695 0.884185 0.927993 0.865399 0.940794 0.953266 0.897106 0.946706 0.878104 1.0406 0.934613 1.01583 1.02199 0.828253 0.902914 0.884237 1.00334 0.859213 1.05324 1.06556 0.828054 1.17805 1.18417 0.871798 1.18424 1.17814 1.18445 0.878288 1.18438 1.17825 1.18437 0.853242 1.18436 1.18435 0.802927 1.18422 1.1842 1.19055 0.940873 1.19689 1.1907 1.1906 0.871752 1.19073 1.19068 0.890624 1.1908 1.18413 1.1905 0.953131 1.19069 0.82208 1.17837 1.18456 1.17205 1.17194 0.859236 1.17203 0.959149 1.17827 1.17175 1.17211 1.16562 0.909432 0.878225 0.884552 0.897047 1.1655 1.17192 0.859344 1.17803 0.871703 1.17814 1.19056 1.1657 1.17797 0.878223 0.822024 1.16566 1.15937 1.1592 1.17189 0.834403 1.16552 0.853101 1.1592 1.19669 0.89081 1.19664 0.809496 1.19062 1.19071 1.18448 0.85948 1.19668 1.17797 0.921996 1.18452 1.17173 1.18459 0.86563 1.19064 1.19068 1.19705 0.865607 1.19674 1.19084 0.846962 1.18454 1.1969 1.1846 1.17793 1.17203 1.18416 1.17833 1.172 1.16581 0.821626 0.859204 1.16538 1.16585 1.16542 1.1779 1.16557 1.1717 0.903333 1.17203 1.17163 1.17196 1.17814 0.784348 0.890539 1.17207 1.17831 1.18423 0.815491 0.890579 1.17813 1.17813 1.17179 0.884339 1.17803 1.19039 0.778103 1.18452 0.934269 1.17176 1.15303 1.16564 0.740656 1.14667 0.909127 1.15288 1.16575 1.15937 1.15948 1.14061 0.927912 1.14674 0.896845 1.14082 1.15313 1.14082 0.890494 1.14667 1.15958 1.14704 0.915548 1.15326 1.15328 1.15932 1.15328 0.915702 1.14699 1.1467 1.15951 0.909566 1.15288 1.15313 0.784303 1.14083 1.13431 1.12789 1.13446 1.12184 0.92201 1.12827 1.12189 0.934166 1.10961 1.09708 0.82825 1.1346 1.10945 0.959423 1.14681 1.1343 1.14058 0.815422 1.14052 1.14046 0.946922 1.12812 0.771667 1.11563 1.1157 1.1281 0.797041 1.12211 0.965436 1.10937 1.15931 1.15935 0.953003 1.16576 1.17206 0.972063 1.16554 1.15321 1.15924 0.934149 1.14674 1.15317 1.15328 1.14664 1.14065 0.940425 1.15934 0.946915 1.16541 1.16541 1.17805 0.940478 1.16573 1.1717 1.15918 1.15946 0.753175 1.15297 0.959325 1.15322 1.14663 1.14671 1.14668 1.14048 0.953365 1.14668 1.15309 1.14045 1.13461 0.946691 1.128 1.12179 1.13432 0.903197 1.12808 1.10939 1.11543 0.89053 1.1344 1.1406 1.14076 0.903274 1.15325 0.771674 1.14699 1.1346 0.921658 1.12825 1.12188 1.12791 1.12205 0.928295 1.1219 1.19711 1.19668 1.19081 1.1904 1.19065 0.934521 1.1906 1.18423 1.19039 1.19665 0.909586 0.903002 1.18459 0.771907 1.19694 1.19665 0.897109 1.19702 1.19712 1.19663 0.77791 1.19702 1.19046 0.884405 1.19069 1.19071 0.865503 1.18443 0.909501 1.19042 0.796784 1.18423 0.915547 1.18429 1.17799 0.822089 1.17803 0.903339 1.18462 1.18448 1.17833 0.828353 0.915603 1.18422 1.18437 1.18427 1.17816 1.17811 0.940831 0.79043 1.19087 1.19049 1.18443 0.940854 1.1782 1.1844 0.81576 1.18439 0.940532 1.19084 1.18456 0.946983 1.19056 0.834281 0.846685 1.19065 0.947077 1.19074 1.1971 0.84045 0.953163 1.19696 1.19669 0.928341 1.19708 0.846662 1.19706 1.19053 0.840783 1.19041 1.19071 1.1907 0.940613 1.19707 1.19687 0.934363 0.822122 1.1908 0.921716 1.19686 1.19687 1.19045 1.19666 1.18422 1.19042 1.19053 1.19676 1.19667 1.19055 0.847105 1.15926 1.18417 1.19669 0.847027 1.19075 1.13413 1.19687 0.859139 1.19052 1.18425 1.18459 0.847014 1.14706 1.16559 1.19081 0.853036 1.19672 1.15335 1.18445 0.853088 1.15337 1.1658 1.17208 0.853271 1.14038 1.12186 1.15917 0.865755 1.1407 1.18435 1.17167 0.85941 1.17193 1.17832 1.17815 1.16571 1.16545 1.17168 1.16546 1.15947 1.17817 1.17834 1.15955 1.17165 1.17814 1.14071 1.17181 1.153 1.16583 1.15292 1.15919 1.15324 1.14683 1.15942 1.14668 1.14712 0.796898 0.953258 1.15918 1.15315 0.80331 1.13421 1.13458 0.946926 1.12832 1.12799 1.12212 1.11541 1.12804 1.12817 1.14045 0.859579 1.14705 1.13455 1.14059 0.934402 1.14074 1.11563 0.796998 1.12204 1.13428 1.12819 1.16541 1.14046 0.815673 1.12827 1.13448 1.15941 1.12166 1.13444 1.14063 0.865566 1.1345 1.11551 1.11573 0.840573 1.15317 1.12198 1.13459 1.12794 1.12164 1.09693 0.834279 1.10944 1.12185 1.09038 1.11587 1.09689 1.12791 1.12193 0.846755 1.12186 1.09062 1.10305 1.10327 0.903007 1.10942 1.11545 1.1219 0.871893 1.11572 1.10301 1.10915 1.11538 0.853178 1.10295 1.10933 0.87833 1.07188 1.09681 0.840761 0.903058 1.06586 0.922028 0.84068 1.0842 0.952916 1.07822 0.871738 0.947074 1.09067 0.865429 0.94706 1.09062 0.940474 0.85322 1.07797 0.971878 1.08443 1.10305 1.09709 1.07803 0.896801 1.09059 1.08417 1.06539 1.07211 0.852991 0.909581 1.06577 1.07187 1.04697 0.846958 1.06547 0.9158 1.05933 1.05333 0.884263 1.09671 1.10334 1.08425 1.10957 1.09043 1.10289 0.921941 1.06568 1.05933 1.04691 1.04087 1.07194 0.927961 1.05913 1.0406 0.996833 1.02799 0.934162 1.04058 1.03458 0.977943 0.940694 0.978015 0.965721 0.996728 0.965558 0.852921 1.01573 0.797097 0.984554 0.971928 0.959501 0.815814 1.03461 0.890446 1.02792 0.878292 0.846843 1.01578 0.871918 1.05302 0.809622 1.04042 0.903108 1.02803 0.853021 0.909342 1.02195 0.8971 0.809224 1.00304 0.878276 1.0221 0.884504 0.734398 0.978144 0.859211 1.00925 0.865543 0.884461 0.965765 1.10326 0.890784 1.10941 1.1154 0.87189 0.840803 1.09702 1.07792 0.928223 1.09692 1.06553 0.828287 1.09674 0.915869 1.08449 0.921831 1.07791 1.09062 0.928214 1.10307 1.10916 0.821691 1.11586 0.92201 1.11579 0.934332 1.1029 0.815875 1.09669 1.10336 1.09076 0.909609 0.834386 1.09058 0.896825 0.859586 1.07821 1.06562 0.902945 0.890504 1.03439 0.915745 1.02211 0.853041 0.928153 1.05921 0.846866 0.921643 0.840681 0.909349 1.05915 0.915604 0.859146 1.03451 0.927995 0.853361 1.00306 0.89064 0.978321 0.865434 0.971753 0.997017 0.890439 0.946667 0.996692 0.878348 0.853192 0.990554 0.959596 1.08427 0.871783 0.85914 1.05936 0.859433 0.965494 1.02791 0.834462 0.846699 0.871671 1.05301 0.853202 0.834453 0.872017 1.02816 0.84706 0.865466 0.865789 1.04672 0.896831 0.865551 0.859185 0.915407 0.859373 0.853221 0.859143 0.98446 0.884175 0.877929 1.0221 0.846703 0.896751 0.903252 0.865678 0.98433 0.87829 0.953298 0.85962 1.02207 0.890474 0.878342 0.984352 1.01574 0.915609 0.902978 0.971844 0.878318 0.971947 0.909388 0.871858 0.934213 0.94665 0.884294 0.984405 0.871924 0.871788 0.91566 0.934524 0.87818 0.896839 0.940849 0.890538 0.89085 0.946886 0.897015 0.872058 0.953341 0.959208 0.884398 0.934133 0.890852 0.978308 0.865709 0.928339 1.00317 0.884377 0.971951 0.903046 0.978001 0.884606 0.977884 0.953007 0.871628 0.897111 0.890862 0.996856 0.996631 0.890835 0.846747 0.903024 0.965813 0.98428 1.00952 0.896972 1.01577 0.921932 1.02811 0.990718 0.897078 0.871642 0.965495 0.99083 0.902904 0.953255 0.877998 0.903218 1.02192 0.965748 1.02798 0.909304 0.965434 1.04696 1.00337 0.990821 0.953341 0.99047 1.0032 0.827977 0.959615 0.972058 1.0033 0.940684 0.997086 0.984157 0.959315 1.00333 0.834619 1.01549 0.996991 0.9344 0.840382 1.00937 1.02171 0.921693 1.03444 1.02187 0.853031 1.04076 1.03454 0.88454 1.02192 0.872054 1.05917 1.04705 0.846821 1.00937 0.896655 1.02795 1.04668 0.85919 1.05292 0.859605 1.00337 1.05937 1.07172 0.83418 1.0904 0.840512 1.05309 1.01569 0.840836 1.01556 0.890817 1.06564 0.840711 1.02198 1.05947 0.865533 1.05957 0.834342 1.08448 0.959413 1.09079 0.847094 1.10949 0.846717 1.10305 1.0967 1.09676 0.871629 0.865602 0.971849 1.10927 1.07821 1.08442 0.890772 1.07209 0.809148 1.08423 0.959551 1.0906 0.903184 1.09056 1.10302 1.09666 0.85292 1.10295 0.797108 0.965717 0.871899 0.978139 0.909549 0.796847 0.990592 0.984323 0.877969 0.977937 0.959413 0.996785 0.896891 0.953079 0.965581 0.878211 1.00962 0.971909 1.00937 0.909209 0.959197 0.828179 0.884407 1.00303 0.996746 0.903024 1.02837 0.790414 0.978243 0.89679 1.04055 1.05302 0.765489 0.915845 0.990496 1.01568 0.778239 1.01546 0.915481 1.03461 1.00962 1.05918 0.909232 1.00326 1.04685 0.927894 0.790453 0.984251 1.00927 0.921706 1.02192 0.997105 0.915823 1.05915 0.99057 1.03416 0.947092 0.978254 1.02173 1.0092 0.934318 1.04081 1.05296 0.997049 0.921759 0.853162 0.909514 1.06565 0.984416 1.07835 0.815403 0.928089 1.01538 0.753106 1.02788 1.05306 1.02824 1.04044 0.934245 1.03431 0.778272 1.04704 1.04059 0.928339 1.02825 0.822047 1.03441 1.06564 1.02803 1.07164 0.921742 1.03456 1.09061 0.771901 1.0404 1.08446 1.0407 1.06587 1.03413 1.10294 1.05326 1.06576 0.934468 1.05325 1.09694 1.04688 1.10332 0.940789 1.05931 1.12201 1.06545 1.10949 1.06543 1.11567 1.06557 1.1155 0.928327 1.07809 1.07823 1.08444 1.04683 0.965789 1.05954 1.08416 1.04703 1.09685 1.05956 0.940405 1.07181 1.1032 1.06539 1.09066 1.02797 0.946719 1.10916 1.09701 0.946768 1.1031 1.02211 1.10947 1.04073 1.09704 0.971664 1.10958 0.959142 1.02799 1.02196 0.928048 1.02179 0.972014 1.01565 0.959528 1.0095 1.04059 0.928132 1.02824 0.915613 0.909599 1.02171 1.04067 1.05321 0.878123 1.04708 0.809499 1.05939 1.06568 0.859308 1.05337 1.05326 0.803106 1.03449 1.04074 1.05949 1.04682 0.852993 0.865725 0.940618 0.847104 0.871678 0.946717 0.865687 0.952929 0.86572 0.871727 0.965746 0.99066 0.959159 1.01574 0.953158 0.953117 0.965743 0.940441 0.940692 0.940855 0.965511 0.928144 0.946741 0.93423 0.859221 0.934574 0.959558 0.884598 0.890399 0.947062 0.878286 0.928219 0.946851 0.884484 0.90953 0.972118 0.884198 0.971828 0.896838 0.972114 0.928323 0.853203 0.990563 0.922036 0.984194 0.809353 0.978055 0.990459 0.828173 0.940638 0.965541 1.01567 0.796675 0.953102 0.99057 0.965849 0.959508 0.959413 0.846683 0.977896 0.990598 0.803145 0.928188 1.00935 0.921825 0.834171 0.878041 0.859269 0.940721 0.915704 0.815458 0.928339 0.959215 0.934601 0.909521 0.909292 0.878234 0.827882 0.915722 0.934231 0.903178 0.953245 0.853139 0.902942 0.984276 0.853109 0.922072 0.971925 0.859512 0.840721 0.90927 0.940479 0.853209 0.909326 0.978138 0.821967 0.947098 0.84075 0.803174 0.934459 0.840429 0.853266 0.971842 0.828316 0.953101 0.853165 0.965627 0.803285 0.859223 0.927918 0.865386 0.921935 0.859382 0.915425 0.871942 0.915645 0.865757 0.940781 0.859364 1.10922 0.927877 1.10915 0.890835 1.10328 0.934458 1.10318 0.884257 1.00325 1.12174 1.11553 1.10934 1.09664 0.88436 1.00303 1.09695 0.85931 1.01566 1.08434 0.865575 1.09074 1.01576 0.871636 1.08439 1.10919 0.865482 0.978299 1.10303 0.884127 1.0967 0.878368 0.98432 1.09066 0.872051 0.996857 0.865712 1.09668 0.88445 1.00312 0.878109 0.996989 1.0717 0.871792 1.09039 0.921928 0.890564 0.990676 1.09676 0.903129 0.896651 1.02809 1.09086 0.896841 0.890467 1.02163 0.909332 0.903261 1.07199 1.03432 0.878337 1.04709 0.952994 1.07825 0.959477 0.865498 1.03428 1.07199 0.946968 0.871926 1.03416 1.05322 0.890599 0.971647 1.00924 0.884549 1.04038 0.921916 0.896674 1.00934 1.05298 0.965439 0.865446 1.07163 0.996814 0.984487 0.877927 1.05333 0.88445 0.877936 1.02822 1.04667 0.890833 0.890843 1.00957 1.01555 0.884464 0.903124 1.02194 0.896861 0.897063 1.00925 1.00955 0.896688 0.928262 1.03432 0.896779 0.965434 1.01555 0.909518 0.959593 0.990771 0.915476 0.96584 1.06582 0.940479 0.921933 0.940741 0.921631 0.952979 1.04706 0.909434 0.971903 0.902882 1.06542 0.996707 0.915735 1.05306 0.90314 1.04664 1.0406 0.9281 1.00933 0.92791 1.03439 1.0405 0.915813 1.01587 1.05324 1.01586 0.921715 0.984294 1.04671 1.07185 0.978246 0.934564 0.990813 1.05914 0.984602 1.00333 1.07197 0.97183 0.996645 1.07797 1.10333 0.990477 1.05956 1.00328 1.08439 0.990809 1.07195 0.802995 0.98421 1.07197 1.02807 0.959167 1.03449 1.09682 0.978038 0.990819 1.0783 0.947101 1.02818 1.0907 0.953113 1.00333 1.08424 0.965682 1.04698 1.07807 1.06581 1.05317 0.815417 0.959299 1.0596 1.04676 1.07806 1.05332 0.82175 0.959127 1.05333 1.04077 1.00336 0.828128 1.07194 1.07209 0.996739 1.08428 0.834342 1.00943 1.06542 1.05953 0.85916 1.00953 1.08433 1.08421 1.09073 0.865707 1.0971 1.05947 1.01561 0.877997 1.06553 1.09065 0.871718 1.00308 1.07208 1.07837 1.05308 1.09055 0.847045 0.990607 1.09052 1.10306 1.06585 1.08434 1.10294 0.822027 1.10303 1.05305 0.978049 1.04684 0.828321 1.00292 1.07182 1.05934 0.877958 0.984167 1.08418 1.0593 0.86569 0.996889 1.04068 0.88417 1.07812 1.0468 0.871746 1.07189 1.05917 1.07813 1.04059 1.08423 1.09692 1.00924 0.809372 1.03452 1.08413 1.09055 1.03423 0.996858 1.00331 1.04665 1.02205 1.02209 1.02809 0.734589 1.00303 1.03438 1.02826 1.01585 1.04071 1.00947 0.790649 1.00923 1.03428 1.01559 1.0033 1.04699 0.840485 1.04055 1.04062 1.02212 0.834484 1.02168 1.05961 1.03454 1.02789 0.846993 0.977897 1.02799 0.853002 0.984429 0.990431 0.877946 0.990732 1.0154 0.865588 0.996766 0.984175 0.859459 1.04062 0.953245 0.853033 0.921757 1.04704 0.978118 1.02208 0.840744 0.978354 1.00932 0.922109 0.815746 1.02826 0.934306 0.840795 0.903353 1.03456 0.903081 0.834414 0.890746 1.07795 0.884592 0.87835 1.06565 0.890406 0.88439 1.06571 0.884148 0.872083 1.06571 0.972051 0.884577 0.959151 1.05946 0.884159 0.928301 1.09705 0.890737 1.07822 0.946675 0.884524 1.09055 0.97169 0.87163 0.921956 1.0655 0.903197 0.90311 0.909563 1.0845 0.897082 0.878366 1.06546 0.890531 0.915789 1.05304 0.890423 0.915629 1.04054 0.896657 0.89702 1.01539 0.903024 1.04085 0.8345 1.05916 0.909618 0.852994 1.05325 0.846686 0.822087 0.91551 1.05962 0.92167 0.846866 1.07207 0.915642 0.84062 1.05337 0.928173 1.07816 0.934183 1.07174 0.865565 0.946693 1.11586 1.12203 1.1282 0.859343 1.13447 1.12813 1.122 0.865828 1.12801 1.14054 0.934333 0.878089 1.13437 0.871951 1.14671 0.871739 0.93432 1.1094 0.846884 1.12202 1.12805 1.1093 0.884157 0.922004 1.12184 0.877934 1.12816 1.13417 1.14046 0.859255 1.14062 1.14687 0.953137 1.14076 0.853306 1.15293 1.13422 0.847122 1.16567 1.15957 1.1407 1.15315 1.15943 0.94681 1.15915 1.17182 1.16587 1.16581 0.95298 1.16543 0.865861 1.14706 1.16544 0.871633 1.15332 1.15929 0.902969 1.14673 0.89039 1.14708 0.990828 1.15316 0.903169 1.17207 0.978203 1.15927 0.909297 1.17794 0.940462 0.909355 1.17163 1.1654 0.940707 1.1594 1.11579 1.13413 0.934232 1.12164 1.12799 1.11553 1.12191 0.959603 0.915409 1.13449 0.965771 1.14069 1.12811 1.13452 0.965808 1.14084 1.12173 1.11541 0.87181 1.12796 1.11554 0.93449 1.11566 0.909572 1.12168 1.13432 0.947029 0.915591 1.12834 0.934243 1.14691 1.14039 1.1471 0.90913 0.89698 1.13449 1.14072 1.15305 0.984601 1.1529 0.89671 1.14699 0.984621 1.15296 1.15938 0.928107 1.15921 0.978071 1.16564 1.15931 1.15319 0.921676 1.16549 0.965779 1.15299 1.14706 1.15921 0.922027 1.147 0.990389 1.15288 1.15953 0.928238 1.15947 0.921759 1.1654 1.16546 1.16577 1.1718 1.17207 0.940507 0.921734 1.17184 0.928226 1.1779 0.940833 1.17815 0.890622 1.17808 0.927951 1.16572 0.928081 1.1719 1.18419 0.940784 1.17806 0.897039 1.17211 1.17173 1.17212 0.865665 1.18427 0.959323 1.17208 1.17792 1.178 0.952876 1.17837 1.17815 0.946668 1.18441 1.17171 1.18419 0.940687 1.17803 1.17169 1.17209 0.946756 1.17809 1.17811 1.17171 1.17174 1.17824 0.953253 1.17834 1.17205 1.17795 1.18444 0.971648 1.18446 1.17799 1.17817 1.17811 1.17166 1.17817 0.96584 1.1782 1.17799 0.959476 1.18446 0.865389 1.18416 1.17804 1.18422 1.1718 0.884138 1.16541 1.17814 1.17184 0.890874 1.1844 1.17802 1.19038 0.896837 1.1844 1.19086 1.18416 0.90945 1.19071 1.19085 1.17178 1.17212 0.902928 1.18428 1.17184 0.915786 1.17811 1.17803 0.921784 1.17823 1.19701 1.19054 1.18417 0.909549 1.19667 0.903123 0.915583 0.921689 1.19678 1.17804 0.928079 1.19682 1.19686 1.19085 1.09065 1.19044 1.08461 1.18462 0.934443 1.18435 1.17166 1.18413 1.11569 1.19064 1.14707 1.18441 0.896899 1.11539 1.18436 1.19052 1.18425 1.11587 1.18439 1.19705 0.915539 1.14083 1.19079 1.17799 1.19086 1.09678 0.934189 1.16564 1.17819 0.928293 1.1842 1.18428 1.10933 0.934562 1.19064 1.09666 1.07828 1.19701 0.921653 1.18428 1.12173 1.19058 1.18454 1.12788 1.18429 1.12834 1.19064 0.940632 1.1842 1.19675 1.18427 1.14673 1.09051 0.947033 1.19041 1.10333 1.10295 1.10922 1.11546 1.12806 0.953268 1.1346 1.12195 1.10936 1.10952 1.12817 1.10293 1.14061 0.940453 1.14086 1.13423 1.13457 1.14086 1.0843 1.14695 1.09061 1.11561 0.959522 1.11578 1.09672 1.1217 1.09705 1.10942 1.09083 1.10296 0.953261 1.11584 1.0845 1.12801 1.14056 1.07801 1.13457 1.09685 1.12184 0.978291 1.13419 1.1095 1.13454 1.15945 1.10334 1.15313 1.06562 1.16547 0.928098 1.16578 1.0656 1.15293 1.15929 1.172 1.17194 0.927918 1.16544 1.05944 1.17164 0.940527 1.17813 1.07168 1.14697 1.16567 0.946916 1.15942 1.19675 1.14691 1.12821 1.15952 1.19684 1.15337 0.934301 1.19076 1.15321 1.05952 1.17797 1.08438 0.946712 1.14691 1.13453 1.15914 1.1471 0.934477 1.16543 1.097 1.10311 1.07823 1.09707 1.07212 0.94074 1.10944 1.06544 1.09055 1.10944 0.946754 1.0592 1.09663 0.940484 1.09053 1.03446 1.10952 0.953209 1.11574 1.12827 0.953208 1.04046 1.11569 0.959402 1.12812 1.12164 1.02794 1.09709 1.10961 0.946809 1.04689 1.08422 1.07819 0.953267 1.10309 1.00959 0.965609 1.08448 1.06567 1.07834 0.984279 1.08419 1.10295 1.04709 0.972003 1.09054 1.08447 1.09705 0.984536 1.0843 1.09693 1.01572 0.959523 1.09057 1.12832 1.13456 0.959536 1.13413 1.07197 1.14067 1.122 0.965449 1.09671 1.15315 1.05335 0.971696 1.15323 1.07798 1.12207 1.1655 0.990438 1.14663 1.05914 1.15938 1.10957 1.12208 0.977883 1.11573 1.04676 1.10304 1.10319 1.12788 0.984263 1.14078 1.02207 1.13444 1.11551 0.940412 1.10936 1.05334 1.10956 1.17196 0.965453 1.17182 1.03458 1.18454 1.17805 0.947003 1.02827 1.17178 1.17803 1.18425 1.04041 1.18454 1.1779 0.959135 1.18453 1.1908 1.00922 1.16553 0.953183 1.19075 1.18436 1.00295 1.1779 0.971765 1.1782 1.01552 1.19069 0.95931 1.19697 0.984354 1.18418 0.965838 1.18459 1.18414 1.19693 1.03431 1.19676 0.965792 1.19042 1.04692 1.19081 0.971846 1.1906 1.01568 1.19085 1.19047 0.984324 1.19056 0.99681 1.1908 1.19711 1.19672 1.19687 0.971956 0.890418 0.996771 1.1904 1.19665 0.990755 1.19057 0.990727 1.19066 1.10916 1.10918 0.884384 1.0783 1.19671 1.19692 0.977954 1.19062 1.09039 0.87789 1.08452 1.19697 0.984465 1.0782 1.08457 0.896685 1.19697 0.984156 1.19687 1.19677 0.890498 1.06555 1.17202 0.965721 1.1845 0.890768 1.14686 1.07192 1.16555 0.871712 1.17163 0.990794 1.19046 1.19664 0.840448 1.1908 1.06567 1.17817 0.978282 1.12183 1.07835 0.846769 1.14077 1.07209 1.12171 1.0029 1.14058 1.11549 0.884563 1.07176 1.19045 0.978124 1.15294 0.872122 1.18454 1.147 0.996965 1.1719 1.05328 0.853133 1.14087 0.997 1.12837 0.902954 1.02791 1.19066 1.19684 1.19686 1.00959 1.1843 1.05933 0.921664 1.19687 0.990472 1.19667 1.04706 1.19063 0.89682 1.19062 0.990473 1.19684 1.05958 1.19702 1.19693 1.19673 0.940846 1.00307 1.0533 1.19707 0.928351 1.18438 1.19705 0.996757 1.04044 1.19705 0.90299 1.15931 1.19043 1.00957 1.04693 1.18414 0.909518 0.996827 1.19044 1.05301 1.19696 0.896836 1.19686 1.00312 1.19666 1.19706 0.877918 1.0406 0.884461 0.996673 1.02821 0.859158 1.00958 1.07828 0.909276 1.01566 1.05942 0.865529 1.00917 0.871717 1.05321 1.01573 0.83446 1.05916 1.00952 1.07179 0.884405 1.01586 1.06561 0.878285 1.02831 0.840625 1.05334 1.02184 1.0344 1.06556 1.02798 1.04687 1.02163 1.0346 1.04067 1.04076 1.04061 1.04688 1.05327 1.05915 0.940574 1.04046 0.853124 0.959242 1.03424 0.846921 0.953246 1.02