# vtk DataFile Version 3.0
vtk output
ASCII
DATASET UNSTRUCTURED_GRID
POINTS 44482 float
0.531528 0.0298321 0
0.539022 0.0254666 0
0.546171 0.0329932 0
0.542351 0.0408854 0
0.535596 0.0406925 0
0.531621 0.0369241 0
0.531528 0.0298321 0
0 0.00951786 0
0.0127555 0.0107159 0
0.0128789 0.0108831 0
0.00973615 0.0224667 0
0 0.021418 0
0 0.00951786 0
0.0127555 0.0107159 0
0.0143387 0 0
0.0239426 0 0
0.0253758 0.0124742 0
0.0230332 0.0136717 0
0.0128789 0.0108831 0
0.0127555 0.0107159 0
0.546171 0.0329932 0
0.553485 0.031552 0
0.557923 0.0375398 0
0.553519 0.0461286 0
0.546634 0.0464151 0
0.542351 0.0408854 0
0.546171 0.0329932 0
0.546668 0.540947 0
0.546192 0.541811 0
0.541107 0.543542 0
0.532936 0.539521 0
0.534113 0.529526 0
0.539841 0.526778 0
0.544297 0.528912 0
0.546668 0.540947 0
0 0 0
0.0143387 0 0
0.0127555 0.0107159 0
0 0.00951786 0
0 0 0
0.0963117 0.538273 0
0.0938677 0.533534 0
0.104982 0.523155 0
0.108845 0.526777 0
0.108912 0.535701 0
0.102432 0.540354 0
0.0963117 0.538273 0
0.528204 0.54174 0
0.532936 0.539521 0
0.541107 0.543542 0
0.538233 0.554954 0
0.534286 0.556227 0
0.526226 0.550525 0
0.528204 0.54174 0
0.553519 0.0461286 0
0.557923 0.0375398 0
0.565009 0.0376908 0
0.568496 0.0439664 0
0.56671 0.0502404 0
0.5584 0.0522306 0
0.553519 0.0461286 0
0.108845 0.526777 0
0.120933 0.524996 0
0.124061 0.532753 0
0.117956 0.54004 0
0.108912 0.535701 0
0.108845 0.526777 0
0.546668 0.540947 0
0.558593 0.536641 0
0.563821 0.541261 0
0.562114 0.548856 0
0.553392 0.551676 0
0.546192 0.541811 0
0.546668 0.540947 0
0.0253758 0.0124742 0
0.0239426 0 0
0.0359525 0 0
0.036332 0.00925299 0
0.0286424 0.0133243 0
0.0253758 0.0124742 0
0.535596 0.0406925 0
0.542351 0.0408854 0
0.546634 0.0464151 0
0.543161 0.0540402 0
0.531765 0.0553675 0
0.530935 0.0539216 0
0.535596 0.0406925 0
0.541107 0.543542 0
0.546192 0.541811 0
0.553392 0.551676 0
0.551639 0.556316 0
0.544932 0.558775 0
0.538233 0.554954 0
0.541107 0.543542 0
0.010568 0.0335812 0
0.0127531 0.025902 0
0.0198017 0.0245702 0
0.0257822 0.029749 0
0.0258591 0.030111 0
0.0195357 0.0380911 0
0.0122356 0.0357837 0
0.010568 0.0335812 0
0.104982 0.523155 0
0.104597 0.521552 0
0.114507 0.512494 0
0.119956 0.515428 0
0.122103 0.521963 0
0.120933 0.524996 0
0.108845 0.526777 0
0.104982 0.523155 0
0.536592 0.0672141 0
0.531209 0.0583777 0
0.531765 0.0553675 0
0.543161 0.0540402 0
0.548046 0.0613258 0
0.546196 0.0663383 0
0.536592 0.0672141 0
0.546634 0.0464151 0
0.553519 0.0461286 0
0.5584 0.0522306 0
0.556446 0.0585092 0
0.548046 0.0613258 0
0.543161 0.0540402 0
0.546634 0.0464151 0
0.560529 0 0
0.571492 0 0
0.572993 0.00827339 0
0.563335 0.0127348 0
0.559302 0.00957167 0
0.560529 0 0
0.571492 0 0
0.586133 0 0
0.586779 0.00870995 0
0.586455 0.00921526 0
0.577195 0.0112899 0
0.572993 0.00827339 0
0.571492 0 0
0.567716 0.0330953 0
0.565039 0.0232796 0
0.575986 0.0203979 0
0.580918 0.0248327 0
0.58054 0.0325208 0
0.567716 0.0330953 0
0.565039 0.0232796 0
0.563988 0.0226346 0
0.563335 0.0127348 0
0.572993 0.00827339 0
0.577195 0.0112899 0
0.575986 0.0203979 0
0.565039 0.0232796 0
0.580918 0.0248327 0
0.58987 0.0201988 0
0.593433 0.0219116 0
0.59406 0.0338464 0
0.581584 0.0339737 0
0.58054 0.0325208 0
0.580918 0.0248327 0
0.575986 0.0203979 0
0.577195 0.0112899 0
0.586455 0.00921526 0
0.58987 0.0201988 0
0.580918 0.0248327 0
0.575986 0.0203979 0
0.586779 0.00870995 0
0.586133 0 0
0.603396 0 0
0.601093 0.00909003 0
0.586779 0.00870995 0
0.58987 0.0201988 0
0.586455 0.00921526 0
0.586779 0.00870995 0
0.601093 0.00909003 0
0.601719 0.0103308 0
0.600306 0.0194306 0
0.593433 0.0219116 0
0.58987 0.0201988 0
0.614593 0 0
0.626293 0 0
0.627275 0.00828168 0
0.619659 0.0138881 0
0.61664 0.0133033 0
0.615477 0.0119318 0
0.614593 0 0
0 0.021418 0
0.00973615 0.0224667 0
0.0127531 0.025902 0
0.010568 0.0335812 0
0 0.0342555 0
0 0.021418 0
0.603396 0 0
0.614593 0 0
0.615477 0.0119318 0
0.601719 0.0103308 0
0.601093 0.00909003 0
0.603396 0 0
0.536032 0.571259 0
0.530378 0.565754 0
0.534286 0.556227 0
0.538233 0.554954 0
0.544932 0.558775 0
0.543947 0.568874 0
0.536032 0.571259 0
0.601719 0.0103308 0
0.615477 0.0119318 0
0.61664 0.0133033 0
0.608925 0.0241957 0
0.607041 0.0244402 0
0.600306 0.0194306 0
0.601719 0.0103308 0
0.061491 0.541658 0
0.0667512 0.535337 0
0.0753695 0.537557 0
0.0782637 0.541041 0
0.0783054 0.541273 0
0.0720357 0.549562 0
0.062546 0.546597 0
0.061491 0.541658 0
0.0127531 0.025902 0
0.00973615 0.0224667 0
0.0128789 0.0108831 0
0.0230332 0.0136717 0
0.0198017 0.0245702 0
0.0127531 0.025902 0
0.562114 0.548856 0
0.56789 0.554866 0
0.564001 0.564082 0
0.558723 0.564675 0
0.551639 0.556316 0
0.553392 0.551676 0
0.562114 0.548856 0
0.595482 0.0351938 0
0.59406 0.0338464 0
0.593433 0.0219116 0
0.600306 0.0194306 0
0.607041 0.0244402 0
0.602174 0.0345959 0
0.595482 0.0351938 0
0.0938677 0.533534 0
0.0963117 0.538273 0
0.0884862 0.549175 0
0.0783054 0.541273 0
0.0782637 0.541041 0
0.0906014 0.53194 0
0.0938677 0.533534 0
0.0198017 0.0245702 0
0.0230332 0.0136717 0
0.0253758 0.0124742 0
0.0286424 0.0133243 0
0.0329275 0.0213096 0
0.0257822 0.029749 0
0.0198017 0.0245702 0
0.558723 0.564675 0
0.552306 0.574082 0
0.551962 0.57417 0
0.543947 0.568874 0
0.544932 0.558775 0
0.551639 0.556316 0
0.558723 0.564675 0
0.608925 0.0241957 0
0.61664 0.0133033 0
0.619659 0.0138881 0
0.624843 0.0231838 0
0.623077 0.027315 0
0.616885 0.0293667 0
0.608925 0.0241957 0
0.0257822 0.029749 0
0.0329275 0.0213096 0
0.039525 0.0227402 0
0.0390188 0.0343287 0
0.0340611 0.0361354 0
0.0258591 0.030111 0
0.0257822 0.029749 0
0.067757 0.570113 0
0.0647381 0.561736 0
0.072856 0.55436 0
0.0799952 0.558569 0
0.0807069 0.562222 0
0.0708803 0.570598 0
0.067757 0.570113 0
0.607041 0.0244402 0
0.608925 0.0241957 0
0.616885 0.0293667 0
0.614659 0.0386728 0
0.608096 0.0403754 0
0.602174 0.0345959 0
0.607041 0.0244402 0
0.0286424 0.0133243 0
0.036332 0.00925299 0
0.0430382 0.0132967 0
0.044561 0.0172557 0
0.0433731 0.0200738 0
0.039525 0.0227402 0
0.0329275 0.0213096 0
0.0286424 0.0133243 0
0.561689 0.502029 0
0.564282 0.498624 0
0.570094 0.497925 0
0.575737 0.502793 0
0.57358 0.512075 0
0.56727 0.51408 0
0.563531 0.511907 0
0.561689 0.502029 0
0.0571349 0.55427 0
0.062546 0.546597 0
0.0720357 0.549562 0
0.072856 0.55436 0
0.0647381 0.561736 0
0.0596356 0.55902 0
0.0571349 0.55427 0
0.56671 0.0502404 0
0.568496 0.0439664 0
0.580355 0.0431915 0
0.582562 0.0463971 0
0.581727 0.0535129 0
0.572122 0.0564626 0
0.56671 0.0502404 0
0.036332 0.00925299 0
0.0359525 0 0
0.0517939 0 0
0.0517238 0.00101323 0
0.0430382 0.0132967 0
0.036332 0.00925299 0
0.0799952 0.558569 0
0.0885116 0.549277 0
0.0943873 0.554041 0
0.0951096 0.559224 0
0.0865109 0.566633 0
0.0807069 0.562222 0
0.0799952 0.558569 0
0.575737 0.502793 0
0.582999 0.501029 0
0.588825 0.506292 0
0.585528 0.516169 0
0.580827 0.517297 0
0.57358 0.512075 0
0.575737 0.502793 0
0.565009 0.0376908 0
0.567716 0.0330953 0
0.58054 0.0325208 0
0.581584 0.0339737 0
0.580355 0.0431915 0
0.568496 0.0439664 0
0.565009 0.0376908 0
0.0430382 0.0132967 0
0.0517238 0.00101323 0
0.058096 0.013392 0
0.0549341 0.0165185 0
0.044561 0.0172557 0
0.0430382 0.0132967 0
0.072856 0.55436 0
0.0720357 0.549562 0
0.0783054 0.541273 0
0.0884862 0.549175 0
0.0885116 0.549277 0
0.0799952 0.558569 0
0.072856 0.55436 0
0.582562 0.0463971 0
0.593703 0.0443988 0
0.597503 0.0494667 0
0.595699 0.0559226 0
0.585798 0.0578766 0
0.581727 0.0535129 0
0.582562 0.0463971 0
0.0517238 0.00101323 0
0.0517939 0 0
0.0650867 0 0
0.0648925 0.0130624 0
0.058096 0.013392 0
0.0517238 0.00101323 0
0.566735 0.525123 0
0.56727 0.51408 0
0.57358 0.512075 0
0.580827 0.517297 0
0.577271 0.527095 0
0.57238 0.528669 0
0.566735 0.525123 0
0.580355 0.0431915 0
0.581584 0.0339737 0
0.59406 0.0338464 0
0.595482 0.0351938 0
0.593703 0.0443988 0
0.582562 0.0463971 0
0.580355 0.0431915 0
0.108912 0.535701 0
0.117956 0.54004 0
0.118691 0.544691 0
0.1083 0.551466 0
0.10496 0.54949 0
0.102432 0.540354 0
0.108912 0.535701 0
0.0390188 0.0343287 0
0.039525 0.0227402 0
0.0433731 0.0200738 0
0.0513918 0.0307899 0
0.0484126 0.036071 0
0.0455527 0.0370223 0
0.0390188 0.0343287 0
0.580827 0.517297 0
0.585528 0.516169 0
0.592989 0.521363 0
0.589136 0.532058 0
0.585944 0.53298 0
0.577271 0.527095 0
0.580827 0.517297 0
0.562112 0.0650663 0
0.556446 0.0585092 0
0.5584 0.0522306 0
0.56671 0.0502404 0
0.572122 0.0564626 0
0.570718 0.062478 0
0.562112 0.0650663 0
0.0885116 0.549277 0
0.0884862 0.549175 0
0.0963117 0.538273 0
0.102432 0.540354 0
0.10496 0.54949 0
0.0943873 0.554041 0
0.0885116 0.549277 0
0.0549341 0.0165185 0
0.058096 0.013392 0
0.0648925 0.0130624 0
0.0662906 0.0140794 0
0.0680163 0.0217993 0
0.0607854 0.0286554 0
0.058759 0.0280981 0
0.0549341 0.0165185 0
0.588825 0.506292 0
0.594648 0.50521 0
0.601078 0.510595 0
0.597493 0.520369 0
0.592989 0.521363 0
0.585528 0.516169 0
0.588825 0.506292 0
0.585798 0.0578766 0
0.595699 0.0559226 0
0.600067 0.0614774 0
0.597832 0.0684205 0
0.591214 0.0706393 0
0.584618 0.0654796 0
0.585798 0.0578766 0
0.0484126 0.036071 0
0.0513918 0.0307899 0
0.058759 0.0280981 0
0.0607854 0.0286554 0
0.0636902 0.03473 0
0.0585265 0.0430453 0
0.0583174 0.0430897 0
0.0484126 0.036071 0
0.117956 0.54004 0
0.124061 0.532753 0
0.13089 0.534722 0
0.134167 0.543801 0
0.123469 0.548149 0
0.118691 0.544691 0
0.117956 0.54004 0
0.572122 0.0564626 0
0.581727 0.0535129 0
0.585798 0.0578766 0
0.584618 0.0654796 0
0.57639 0.0690299 0
0.570718 0.062478 0
0.572122 0.0564626 0
0.603799 0.49378 0
0.609789 0.499159 0
0.606492 0.509352 0
0.601078 0.510595 0
0.594648 0.50521 0
0.598285 0.49482 0
0.603799 0.49378 0
0.0433731 0.0200738 0
0.044561 0.0172557 0
0.0549341 0.0165185 0
0.058759 0.0280981 0
0.0513918 0.0307899 0
0.0433731 0.0200738 0
0.593703 0.0443988 0
0.595482 0.0351938 0
0.602174 0.0345959 0
0.608096 0.0403754 0
0.606385 0.0475091 0
0.597503 0.0494667 0
0.593703 0.0443988 0
0.0943873 0.554041 0
0.10496 0.54949 0
0.1083 0.551466 0
0.110701 0.560373 0
0.101611 0.564422 0
0.0951096 0.559224 0
0.0943873 0.554041 0
0 0.0342555 0
[...]
CELL_DATA 6400
FIELD FieldData 3
weight 1 6400 float
 0.0546086 0.0524544 0.0524964 0.0546185 0.054444 0.0524131 0.0530056 0.054386 0.0546273 0.0530992 0.0543954 0.0525757 0.0546686 0.0543607 0.0525835 0.0531314 0.0547084 0.0546744 0.0544568 0.0544301 0.0545562 0.0545072 0.0545292 0.0544929 0.0544155 0.0544516 0.0543572 0.0524794 0.0543948 0.0543022 0.0544396 0.0527014 0.0525293 0.0543182 0.0544994 0.052864 0.0526148 0.0542861 0.0544451 0.0526891 0.0526517 0.0545073 0.0526581 0.0545461 0.0526354 0.0546296 0.0526761 0.0527737 0.0545177 0.0545941 0.0527529 0.0527455 0.0546105 0.0527901 0.054475 0.0545758 0.0530144 0.0527627 0.0544382 0.0546753 0.0529023 0.0528412 0.0544792 0.054652 0.0528519 0.0531204 0.0546639 0.0545133 0.0528031 0.0545581 0.0528856 0.0525282 0.0544686 0.0544908 0.0525965 0.0529878 0.0543966 0.0545385 0.0527387 0.0530108 0.0544354 0.054595 0.0526635 0.0520904 0.0525382 0.0546016 0.054361 0.0522587 0.0526443 0.0521452 0.0545462 0.0543917 0.0527787 0.0520239 0.0544301 0.0526637 0.0519743 0.0547825 0.0543992 0.0520692 0.0527302 0.0543559 0.0547568 0.0521837 0.0528408 0.0543563 0.0547463 0.0527627 0.052308 0.0542695 0.0547881 0.0529303 0.0542781 0.0524004 0.0548253 0.0543183 0.0528289 0.0525156 0.0548305 0.0543192 0.0529331 0.0522434 0.0548018 0.0542769 0.0547578 0.0523566 0.0529997 0.054314 0.0529176 0.0547136 0.0529163 0.054227 0.0528601 0.0524859 0.0529972 0.0541873 0.0547613 0.0529166 0.0523937 0.0547986 0.0529947 0.0542987 0.054814 0.0520086 0.0530256 0.0542402 0.0521399 0.0530776 0.0548711 0.0518292 0.05425 0.0531008 0.054873 0.051918 0.0532019 0.0542854 0.0548503 0.0518712 0.0532331 0.054163 0.0519614 0.0531354 0.054923 0.0541873 0.0531734 0.0520291 0.0548922 0.0542231 0.053138 0.0521752 0.0549047 0.0542238 0.0522797 0.053278 0.0548409 0.0541621 0.0530113 0.0523484 0.0548269 0.0541889 0.0529544 0.0548544 0.0521791 0.0541685 0.0531571 0.0521075 0.0549124 0.0541002 0.0530726 0.0522475 0.0548825 0.0530844 0.0540826 0.0548869 0.0522543 0.0530117 0.0540979 0.0548826 0.0530858 0.0526569 0.0540332 0.0547552 0.0531613 0.0526801 0.0547149 0.0532177 0.0527834 0.0539441 0.05471 0.0525771 0.0532446 0.0540081 0.0547817 0.0525417 0.0533049 0.0547925 0.05393 0.0547497 0.0526229 0.0532494 0.053973 0.0546455 0.0528438 0.0540924 0.0533261 0.0546948 0.0540365 0.0528512 0.0546302 0.0533768 0.0540817 0.0529848 0.0547348 0.0540099 0.0527512 0.0534098 0.0546833 0.0539417 0.0525886 0.0546927 0.0529423 0.0526752 0.0548224 0.0539145 0.0528134 0.0527745 0.054813 0.0524836 0.054191 0.054779 0.0528355 0.0525065 0.0541404 0.0527178 0.0548569 0.0525486 0.0542299 0.054851 0.0523594 0.0526354 0.0526753 0.0528572 0.0528016 0.052912 0.0528678 0.0529568 0.0530322 0.0548495 0.052932 0.0524192 0.0540975 0.0529966 0.0547418 0.0527081 0.054142 0.0525229 0.0527556 0.0547442 0.05405 0.052693 0.0528864 0.0541877 0.0547028 0.0528575 0.0547929 0.0526442 0.0541359 0.0527427 0.0526001 0.0527928 0.0547888 0.054092 0.0543542 0.0540906 0.0527084 0.0529315 0.0543262 0.0540465 0.05428 0.0528923 0.0526967 0.0540406 0.0543884 0.0529684 0.0540091 0.0532707 0.053024 0.0544254 0.0539545 0.0543734 0.0531333 0.0539876 0.0533447 0.054324 0.0530787 0.0542474 0.0539184 0.0534165 0.0542711 0.0540023 0.0529984 0.0542056 0.0532176 0.05396 0.0541961 0.0531713 0.05394 0.0533213 0.0543392 0.0530741 0.0539008 0.0542792 0.0533678 0.0531086 0.0544347 0.0538615 0.0534769 0.0532201 0.0544819 0.0535673 0.0538384 0.0531761 0.054438 0.0531802 0.0538179 0.0536519 0.0545144 0.0531001 0.0534535 0.0545372 0.0544272 0.0532449 0.0544892 0.0535456 0.0533092 0.0543874 0.0543725 0.0534992 0.0533176 0.0543767 0.0543452 0.0532177 0.0543192 0.0534 0.053302 0.054355 0.0533477 0.0542835 0.0533235 0.0542665 0.0533946 0.0544357 0.0543135 0.0531029 0.053436 0.0544433 0.0531042 0.0543755 0.0543545 0.0534845 0.0541348 0.0532077 0.0532725 0.0541453 0.0543022 0.0531951 0.0540987 0.0531811 0.0542918 0.0534074 0.0540827 0.0533395 0.054243 0.053402 0.0542297 0.0532612 0.0542317 0.0541925 0.0535113 0.0532197 0.054157 0.054269 0.0533016 0.0540259 0.0533084 0.0542229 0.0539684 0.0534046 0.0533543 0.0542323 0.053954 0.05342 0.0534143 0.0541825 0.0539121 0.0535263 0.053642 0.0541234 0.0540591 0.0542161 0.05349 0.0540966 0.0541715 0.0537318 0.0534456 0.05404 0.0541556 0.0541143 0.0538142 0.0540149 0.0535282 0.054075 0.054245 0.0538272 0.0542455 0.0535963 0.0540705 0.0537212 0.0541742 0.0532559 0.0542395 0.0535916 0.0533401 0.054314 0.0541803 0.0533353 0.0536778 0.0543794 0.0533995 0.0541279 0.053753 0.0543145 0.0532971 0.0541449 0.054248 0.0534054 0.0540848 0.0539076 0.0534121 0.0541134 0.0535051 0.0539335 0.054179 0.0541169 0.0534646 0.053569 0.0540444 0.053849 0.0535081 0.0540264 0.0541702 0.053574 0.0538594 0.0540139 0.0541079 0.0534884 0.0535142 0.0540615 0.053582 0.0535992 0.0545722 0.0536619 0.0539733 0.0545892 0.0536083 0.0534623 0.0541058 0.0545505 0.0536806 0.0540656 0.0546448 0.0533652 0.053513 0.0540123 0.053497 0.0535485 0.054642 0.0535555 0.0540207 0.0545932 0.0537764 0.0539808 0.0544843 0.0534882 0.0537007 0.0544925 0.0539483 0.0534512 0.0537808 0.0544336 0.0535362 0.0536301 0.0539136 0.0537131 0.054539 0.0538534 0.0535815 0.0544923 0.0539318 0.0537928 0.0546999 0.0536817 0.0538443 0.0546376 0.0530627 0.0536577 0.0537655 0.0546477 0.0531179 0.0536457 0.0541389 0.0547415 0.0529183 0.0537428 0.0540799 0.0530002 0.054745 0.0536309 0.0540405 0.0530635 0.0536543 0.0546994 0.0539889 0.0537575 0.0532096 0.0540367 0.0546896 0.0537056 0.0539813 0.0533166 0.0545848 0.0537086 0.0540236 0.0537259 0.0545475 0.053297 0.0539487 0.0538057 0.0546041 0.0531228 0.0538897 0.0538301 0.0546168 0.0531931 0.0539296 0.0537705 0.0545454 0.0532074 0.0538241 0.0539956 0.0543773 0.052817 0.0539072 0.0539411 0.0543066 0.0529234 0.0538254 0.0539014 0.0544344 0.0538895 0.0543667 0.0528993 0.0538072 0.0539643 0.0538973 0.054374 0.0530305 0.0539028 0.0538477 0.0543186 0.0538002 0.0527984 0.0537588 0.0542325 0.0528342 0.0537485 0.0538666 0.0542597 0.05301 0.0538772 0.0537834 0.0541701 0.0537905 0.0531058 0.0538246 0.053812 0.0542958 0.0531924 0.0539384 0.0537207 0.0538604 0.052944 0.0542488 0.0536945 0.0539028 0.053045 0.0542069 0.0539758 0.0539651 0.0544874 0.0531192 0.0544336 0.0539233 0.0533467 0.0544105 0.0540439 0.0538919 0.0534437 0.0539706 0.0545541 0.0538712 0.0534577 0.0544754 0.0541 0.0538375 0.0532761 0.0544959 0.0538236 0.0533653 0.0540301 0.0543412 0.0537679 0.0533707 0.0537965 0.0534826 0.0542897 0.0535486 0.054362 0.0535645 0.0536938 0.0536308 0.0544151 0.0535776 0.0537677 0.0544336 0.0536378 0.0535651 0.0537272 0.053657 0.0543443 0.0537135 0.0537114 0.0536474 0.0535517 0.0536358 0.0537437 0.0549502 0.053472 0.0537607 0.0536645 0.0536714 0.0549427 0.0535363 0.0538266 0.0536607 0.0549636 0.0532743 0.0537491 0.0535851 0.0549333 0.0531945 0.0537387 0.0536861 0.0549835 0.0538216 0.0532767 0.0535837 0.0549985 0.0538973 0.0530973 0.05364 0.0549811 0.0536213 0.0535753 0.0531782 0.0549124 0.0537177 0.0533993 0.054919 0.0535539 0.0537131 0.0549764 0.0534971 0.0534256 0.0535901 0.0549472 0.0534669 0.053479 0.0549494 0.0536709 0.0533541 0.0550187 0.0537452 0.0538612 0.0550394 0.0537981 0.0532555 0.0538278 0.0550136 0.0538045 0.0537733 0.0533199 0.0538777 0.0550502 0.0517632 0.053942 0.0519299 0.0550729 0.0537493 0.053811 0.0550663 0.0518663 0.0537245 0.0550039 0.051665 0.0538725 0.0538403 0.0549849 0.0517051 0.055015 0.0539427 0.0538815 0.0518074 0.0550279 0.0538318 0.0538207 0.0518275 0.0550627 0.0550411 0.0539064 0.0537738 0.052054 0.0550165 0.0537354 0.0539788 0.0522201 0.0539369 0.0537465 0.0548924 0.052118 0.0539037 0.0549127 0.0536667 0.0539752 0.0519225 0.0548779 0.0536272 0.0540133 0.0549548 0.0520262 0.0535635 0.0549345 0.0540143 0.0520599 0.054904 0.0535668 0.0540546 0.0515834 0.0548666 0.0535013 0.0516503 0.0541013 0.0548374 0.0536736 0.0515763 0.054099 0.0535805 0.0517685 0.0548229 0.0536381 0.0541336 0.0517182 0.0548967 0.0536582 0.0541794 0.0514161 0.0548536 0.0535304 0.0515011 0.0540256 0.0549882 0.0534766 0.0515723 0.0549644 0.0539622 0.0518403 0.0549252 0.0534605 0.05405 0.0549532 0.0518782 0.0535466 0.0549932 0.0540109 0.0519324 0.0538942 0.0549839 0.0540829 0.0516624 0.0538005 0.0548926 0.0541038 0.0518968 0.0538526 0.0548455 0.054139 0.0517954 0.0538058 0.0548822 0.0541891 0.0522797 0.0536971 0.0549223 0.0542144 0.0523504 0.0536909 0.0549532 0.0541748 0.0537403 0.0523901 0.0549146 0.0537659 0.0542481 0.0521722 0.0551042 0.0521163 0.053751 0.0550835 0.0542898 0.0522403 0.0550805 0.053706 0.0528235 0.052244 0.0536514 0.0527693 0.0551102 0.0524746 0.0535848 0.0528847 0.0551022 0.0536373 0.052652 0.0529586 0.0550943 0.0534669 0.0527877 0.0550639 0.0525464 0.0534367 0.0528781 0.0550427 0.0523982 0.0535266 0.0550656 0.05296 0.0535372 0.0550793 0.0523471 0.0530227 0.053591 0.0550831 0.0524945 0.0535892 0.0530765 0.0551133 0.0534818 0.0551044 0.0531549 0.0521398 0.0534756 0.0520153 0.0530448 0.0551179 0.0522022 0.0534203 0.0531001 0.055118 0.0519844 0.0531986 0.0551226 0.0533922 0.0520902 0.0527958 0.0550967 0.0520369 0.0528651 0.0550948 0.0534504 0.052363 0.0529399 0.0550763 0.0533958 0.0530147 0.0524784 0.0551065 0.0528163 0.0532987 0.0551017 0.0528284 0.0524103 0.0533613 0.0528989 0.0550844 0.0522624 0.0532857 0.0529771 0.0550173 0.0533755 0.052147 0.0529904 0.0550427 0.0531038 0.053425 0.0522628 0.0550122 0.0530829 0.0532939 0.051293 0.0550646 0.0531737 0.0532562 0.0514224 0.0550379 0.0532037 0.0532201 0.0515091 0.0550076 0.0549828 0.0530631 0.051204 0.0533214 0.0549796 0.0513092 0.0531622 0.0531265 0.0514266 0.0549392 0.0532412 0.0531132 0.0549921 0.0513603 0.0533193 0.0532126 0.0515899 0.0549603 0.0532567 0.0531754 0.0550534 0.0516938 0.0532399 0.0550416 0.0518209 0.0550231 0.0530127 0.0533876 0.0516886 0.055064 0.0533477 0.0530013 0.051443 0.0532871 0.0530737 0.0550483 0.051576 0.0533923 0.0531705 0.0550171 0.0515643 0.0530669 0.0549933 0.0534559 0.0517295 0.0531526 0.0549626 0.051087 0.0536279 0.0529498 0.0512104 0.0550204 0.0535483 0.0530434 0.0512748 0.0549916 0.0534647 0.0511541 0.0547709 0.0529556 0.0535471 0.0510018 0.0547836 0.0533684 0.0536366 0.0512298 0.0547242 0.0533672 0.053347 0.0511882 0.0548112 0.0532832 0.0532696 0.0514457 0.0548013 0.0534126 0.0532556 0.0533216 0.0547515 0.0533748 0.0534201 0.0515992 0.0546593 0.0533125 0.0533025 0.0546952 0.0532633 0.051548 0.0533777 0.0532126 0.0546069 0.0534523 0.0512993 0.0546503 0.0531944 0.0534894 0.0547279 0.0531459 0.0513625 0.0535712 0.0531823 0.0546781 0.0514484 0.0535879 0.0531057 0.0548353 0.0531406 0.0536519 0.0514317 0.0547844 0.0529963 0.0535523 0.0548728 0.0518821 0.0534944 0.0548194 0.051972 0.052929 0.0530469 0.0548527 0.0536267 0.0520494 0.0530868 0.0547599 0.0528443 0.0517836 0.0530294 0.0547098 0.0529197 0.0517992 0.0547375 0.0530526 0.0530428 0.0547913 0.0518761 0.052982 0.0519288 0.0529805 0.0547652 0.0528691 0.054702 0.0521277 0.0529097 0.052909 0.0545558 0.0520303 0.0529641 0.0529321 0.0544888 0.0530511 0.0522458 0.0545411 0.0537318 0.053095 0.052124 0.0546424 0.0536215 0.0531243 0.0546018 0.0519383 0.0536998 0.0531868 0.0545794 0.0520731 0.0544607 0.0536351 0.0532734 0.0517141 0.0531876 0.0536187 0.0543711 0.0516666 0.0531257 0.0535649 0.0545144 0.0517912 0.0532764 0.053662 0.0544611 0.0515417 0.0535691 0.0529413 0.0544079 0.0528676 0.0514768 0.0546681 0.0536216 0.0530322 0.0546328 0.0535227 0.05164 0.0530248 0.0546057 0.0534731 0.0516408 0.0528733 0.0546692 0.0535019 0.0529567 0.051845 0.0535405 0.0546082 0.0528862 0.0534595 0.054479 0.0518987 0.053522 0.0545392 0.0530838 0.0520354 0.0534275 0.0531127 0.0544182 0.0533426 0.05176 0.0531821 0.0545397 0.0533441 0.0545588 0.0532825 0.0518301 0.0534403 0.0532198 0.0544641 0.0533337 0.0527146 0.0533513 0.0544835 0.0531676 0.0534228 0.0527491 0.0549019 0.0533767 0.0533214 0.0526097 0.0548786 0.0532553 0.053241 0.0527959 0.0532741 0.0548197 0.0533265 0.0531948 0.0549266 0.0525815 0.053394 0.054918 0.0526596 0.0535856 0.0548837 0.0533424 0.0526897 0.0534907 0.0548366 0.0534533 0.0529027 0.0547862 0.0535001 0.0534225 0.0547252 0.0534053 0.0530185 0.0535286 0.0547367 0.0534078 0.0527896 0.0537007 0.0548477 0.0533082 0.0529085 0.0547573 0.0534087 0.0537003 0.0547895 0.0527895 0.0549341 0.0536303 0.0525443 0.0533252 0.0548944 0.0536127 0.0534135 0.0524121 0.0535251 0.0549513 0.0525838 0.0534044 0.053596 0.0549071 0.052357 0.0524734 0.0536884 0.0549353 0.0533088 0.0523828 0.0533528 0.0548625 0.0532398 0.0527072 0.0548117 0.0534094 0.0533282 0.0526691 0.0548221 0.0534783 0.0527801 0.0547723 0.0532392 0.0535396 0.0525594 0.0548757 0.0532932 0.0533325 0.0532963 0.0525262 0.0548398 0.0532084 0.0534019 0.0526533 0.054784 0.0531988 0.0529905 0.0535414 0.0546739 0.0531085 0.0546459 0.0530881 0.0534801 0.0532218 0.0546077 0.0531158 0.0536322 0.0531498 0.0547034 0.0528983 0.0546096 0.0531431 0.0537092 0.0546649 0.0529809 0.0530538 0.0536016 0.0545367 0.0530278 0.0531305 0.0545787 0.0530558 0.0536784 0.0531961 0.0544845 0.0537489 0.0532208 0.0532357 0.0545522 0.0544939 0.0532461 0.0533003 0.0536718 0.0532458 0.0544962 0.0538187 0.053111 0.0531476 0.0537633 0.0547261 0.053181 0.053111 0.0547215 0.0537035 0.0531436 0.0546703 0.0537955 0.053169 0.0530557 0.0547392 0.0538831 0.0528569 0.0531576 0.053952 0.0529357 0.0546761 0.0531643 0.053868 0.0527588 0.0546087 0.0530739 0.0539408 0.0527906 0.0530633 0.0544987 0.0538828 0.0530431 0.0528284 0.0545507 0.0540147 0.052982 0.0530171 0.0546155 0.0530149 0.0536944 0.0530822 0.0545738 0.0529445 0.0537531 0.0530521 0.053833 0.0529443 0.0545039 0.0529078 0.0537163 0.0545555 0.0528468 0.0528819 0.0537984 0.0538583 0.0529686 0.052963 0.0538946 0.0538187 0.0538637 0.0529184 0.0528838 0.0537958 0.0539252 0.0529599 0.0522395 0.0538922 0.0540054 0.0527797 0.0522942 0.0540123 0.0539871 0.0524127 0.0528454 0.0539456 0.053875 0.0528778 0.0521663 0.0537136 0.0540329 0.0523441 0.0527868 0.0537094 0.0540692 0.0536618 0.053097 0.0522484 0.0540905 0.0536382 0.0530106 0.0524606 0.054016 0.0537801 0.0529694 0.052561 0.05384 0.0541525 0.0528969 0.0537485 0.0525274 0.0540799 0.0530291 0.0541467 0.0523687 0.0536752 0.0541554 0.0529558 0.0522822 0.0539755 0.0529528 0.0542299 0.0524688 0.0539308 0.0528127 0.0524043 0.0542897 0.0529199 0.0541054 0.0521131 0.0528302 0.0543126 0.0540198 0.0520494 0.0528336 0.054222 0.0521771 0.0527936 0.0542827 0.0540315 0.0528583 0.052159 0.0539623 0.0543468 0.0527414 0.0538837 0.0540721 0.051853 0.053807 0.0527864 0.0541472 0.0537341 0.0519623 0.0542163 0.0526729 0.0538419 0.0541345 0.0520123 0.0526671 0.053936 0.0542116 0.0522434 0.054212 0.0539134 0.0527032 0.052143 0.0542783 0.0538189 0.0527105 0.0523047 0.0535622 0.0543509 0.053508 0.0526581 0.0520688 0.0536061 0.0543956 0.0525887 0.0535134 0.0543301 0.0534352 0.0525948 0.0535887 0.0542804 0.0535658 0.0543764 0.0534797 0.0539885 0.05377 0.0533123 0.053846 0.0539385 0.0533878 0.0539278 0.0521876 0.0532996 0.053854 0.0527185 0.0532242 0.0537744 0.053449 0.0526479 0.0538898 0.053767 0.0533919 0.0526812 0.0539381 0.0538913 0.0538508 0.0533444 0.0525941 0.053845 0.0540032 0.053645 0.0525495 0.0539829 0.0537968 0.0527236 0.0536179 0.0540625 0.0535363 0.0537709 0.0527987 0.0540116 0.0537906 0.0526914 0.0537106 0.0540752 0.0536865 0.0525962 0.053711 0.0538544 0.0537191 0.0527804 0.0535903 0.0536597 0.0537791 0.0524623 0.0536483 0.0539365 0.0537909 0.0524314 0.0535017 0.0538553 0.0538223 0.052344 0.053402 0.0537788 0.0537529 0.0535329 0.0522152 0.0536992 0.0538676 0.0534292 0.0522915 0.0537372 0.053939 0.0534403 0.053644 0.0523493 0.0539572 0.0540746 0.0524839 0.0536503 0.0540713 0.0541327 0.0525353 0.0536176 0.0541286 0.053991 0.0536012 0.052635 0.0540128 0.0541162 0.0534736 0.0524138 0.0535546 0.0541747 0.0540587 0.0540759 0.0525771 0.053495 0.0541128 0.054037 0.0540972 0.0524825 0.0539638 0.053637 0.0541739 0.0538802 0.0542539 0.0535211 0.0540244 0.0539985 0.0541788 0.0539202 0.0535313 0.0541475 0.054102 0.0542161 0.0535562 0.0542223 0.0540867 0.0541192 0.0542663 0.0536002 0.0541574 0.0543275 0.0540192 0.0534895 0.0543748 0.0542392 0.0534271 0.0539382 0.0544303 0.0540163 0.0532611 0.0542697 0.0543496 0.0541608 0.0541612 0.0533611 0.0543011 0.0542363 0.0541958 0.0544274 0.0533156 0.0540853 0.0540371 0.0542172 0.0539589 0.0541518 0.0533831 0.0541883 0.0540788 0.0541305 0.0531857 0.0543013 0.053456 0.0539633 0.0538602 0.0534261 0.0541881 0.0539981 0.0539403 0.0535153 0.0543226 0.0538391 0.0539409 0.0533239 0.0542595 0.0537379 0.0533861 0.0537814 0.0543977 0.0537098 0.0533274 0.0538634 0.0538724 0.0544673 0.0532414 0.0538581 0.0537923 0.0532881 0.0543626 0.0540088 0.0537632 0.0540007 0.053272 0.0536044 0.054436 0.0540446 0.0531811 0.0535187 0.0540743 0.0540062 0.053227 0.0536784 0.0539315 0.053936 0.0536616 0.0531604 0.0539827 0.0539735 0.0535799 0.0531002 0.0540701 0.0539252 0.0535183 0.0539958 0.0536775 0.0542688 0.0535933 0.0540324 0.0539139 0.0535771 0.0542954 0.0540703 0.0535999 0.0538329 0.0540779 0.0535394 0.0538099 0.0543451 0.0541162 0.0534181 0.0540364 0.0543195 0.0538798 0.0541595 0.0535097 0.0542154 0.0538305 0.0541993 0.053544 0.0541789 0.0537375 0.0541009 0.0534376 0.054236 0.0541339 0.0537396 0.0533915 0.0541916 0.0536583 0.0543872 0.0533775 0.054221 0.0534804 0.0535801 0.0544276 0.0541002 0.0533192 0.0537872 0.0541367 0.0544571 0.0537097 0.0534646 0.0541473 0.0543951 0.0534445 0.0536425 0.0541807 0.0533549 0.054282 0.0532483 0.0542687 0.053152 0.0543597 0.0542214 0.0533845 0.0530273 0.0541986 0.0531007 0.0543627 0.0533654 0.0543004 0.0532461 0.0543246 0.0542568 0.0532734 0.0531973 0.0540957 0.0533227 0.0543297 0.0531229 0.0541479 0.0532075 0.0531584 0.0542014 0.054355 0.053291 0.0529559 0.0542052 0.0540374 0.0529012 0.0532572 0.0542295 0.0540971 0.0528876 0.0542915 0.0531595 0.0542412 0.0530487 0.054256 0.0532056 0.054282 0.0529824 0.0542548 0.053294 0.054156 0.0529368 0.0543688 0.0529994 0.0533752 0.0541164 0.0543111 0.0543119 0.0533404 0.0532326 0.0541588 0.0543122 0.0542008 0.0532137 0.0533198 0.0543673 0.0531787 0.0537131 0.0532188 0.0543451 0.053266 0.0537841 0.0543621 0.0531364 0.0533775 0.053617 0.0530663 0.0544232 0.0532906 0.0536976 0.0531571 0.0543591 0.0532382 0.053859 0.0542837 0.0530355 0.0530721 0.0538403 0.0544056 0.0530317 0.0530683 0.0543487 0.0538921 0.0529447 0.0529668 0.0537721 0.0544328 0.0529396 0.0531348 0.0537405 0.0543701 0.053111 0.053161 0.0538001 0.0544248 0.0531194 0.053029 0.0544691 0.0535167 0.053017 0.0528057 0.0544178 0.0535992 0.0528173 0.0531097 0.0536691 0.0527048 0.0544796 0.0526333 0.0529974 0.0535658 0.0544771 0.0528683 0.0529847 0.0534879 0.0528154 0.0545291 0.0529597 0.0527518 0.0545373 0.0530371 0.0534049 0.0527371 0.0542331 0.0525735 0.0529077 0.0534552 0.0525083 0.0524025 0.0541697 0.0536374 0.0528688 0.0525303 0.0542911 0.0537634 0.0528253 0.0526688 0.0537031 0.0542261 0.0526153 0.0531569 0.0535328 0.0524607 0.0542325 0.0525048 0.0536033 0.0532216 0.054296 0.0525798 0.0543603 0.0536644 0.0530549 0.0528891 0.0543116 0.053951 0.0528477 0.0531472 0.0539739 0.0543801 0.0527685 0.0540127 0.0530802 0.0544039 0.0528883 0.0539231 0.0543738 0.0538612 0.0529365 0.0544386 0.0530473 0.0538781 0.0527902 0.0540642 0.0529258 0.0526965 0.0542657 0.0540236 0.0529324 0.0527054 0.0543236 0.0540711 0.0526032 0.0543836 0.0529501 0.0539314 0.0525449 0.0527521 0.0543499 0.0527998 0.0540232 0.0525759 0.0544178 0.0539771 0.0526619 0.0531179 0.0538156 0.0544279 0.0526625 0.0537809 0.0530877 0.0544579 0.053393 0.0537126 0.0544256 0.0529659 0.0534417 0.0536766 0.0544818 0.0529865 0.0533349 0.0537387 0.0533081 0.0538404 0.0544815 0.0529866 0.0538878 0.0534956 0.0545161 0.0530066 0.0539349 0.0534225 0.0544567 0.053324 0.0537907 0.0528308 0.0544837 0.0532239 0.0529078 0.0538413 0.0544873 0.053208 0.0528889 0.0545264 0.053128 0.05272 0.0545024 0.0544854 0.0530425 0.0545572 0.0528264 0.0544166 0.0545408 0.0531106 0.0527497 0.0532583 0.0545884 0.0543855 0.052625 0.053175 0.0544504 0.0545805 0.0527379 0.0531204 0.0544108 0.0546041 0.0527925 0.0535001 0.0546201 0.0545165 0.0534245 0.0527049 0.0544747 0.0546317 0.053341 0.0528081 0.0546597 0.0545493 0.0534878 0.0545421 0.052652