# vtk DataFile Version 3.0
vtk output
ASCII
DATASET UNSTRUCTURED_GRID
POINTS 44493 float
0.0094324 0.0228847 0
0.0119958 0.0113497 0
0.012944 0.0107476 0
0.0233762 0.0142011 0
0.0234445 0.014286 0
0.0218896 0.0210295 0
0.0129239 0.0256464 0
0.0094324 0.0228847 0
0.0130699 0 0
0.024295 0 0
0.0233762 0.0142011 0
0.012944 0.0107476 0
0.0130699 0 0
0.358629 0.953804 0
0.368746 0.944371 0
0.376046 0.950956 0
0.368484 0.963412 0
0.366434 0.964057 0
0.358629 0.953804 0
0 0.00947823 0
0.0119958 0.0113497 0
0.0094324 0.0228847 0
0 0.0231418 0
0 0.00947823 0
0 0 0
0.0130699 0 0
0.012944 0.0107476 0
0.0119958 0.0113497 0
0 0.00947823 0
0 0 0
0.351648 0.956039 0
0.354639 0.953385 0
0.358629 0.953804 0
0.366434 0.964057 0
0.364054 0.967927 0
0.359741 0.97011 0
0.351109 0.967572 0
0.351648 0.956039 0
0.0233762 0.0142011 0
0.024295 0 0
0.0331194 0 0
0.0333485 0.0145841 0
0.0333026 0.0146179 0
0.0234445 0.014286 0
0.0233762 0.0142011 0
0.321375 0.971043 0
0.325153 0.982536 0
0.318212 0.98631 0
0.311356 0.984037 0
0.309957 0.973574 0
0.314696 0.969918 0
0.321375 0.971043 0
0 0.0231418 0
0.0094324 0.0228847 0
0.0129239 0.0256464 0
0.0130276 0.0269672 0
0.00549917 0.0369453 0
0 0.0359835 0
0 0.0231418 0
0.335407 0.967153 0
0.336267 0.966761 0
0.347028 0.970064 0
0.346554 0.98188 0
0.340386 0.983989 0
0.333738 0.981393 0
0.335407 0.967153 0
0.00549917 0.0369453 0
0.0130276 0.0269672 0
0.021315 0.0362727 0
0.0129874 0.0440101 0
0.0125683 0.0440759 0
0.00549917 0.0369453 0
0.321375 0.971043 0
0.327974 0.965576 0
0.335407 0.967153 0
0.333738 0.981393 0
0.328325 0.983389 0
0.325153 0.982536 0
0.321375 0.971043 0
0.0218896 0.0210295 0
0.0234445 0.014286 0
0.0333026 0.0146179 0
0.034034 0.0274376 0
0.028532 0.0289596 0
0.0218896 0.0210295 0
0.968308 0.368889 0
0.970615 0.36722 0
0.978808 0.369775 0
0.980933 0.378182 0
0.979716 0.379633 0
0.971167 0.381741 0
0.967776 0.378628 0
0.968308 0.368889 0
0.311356 0.984037 0
0.318212 0.98631 0
0.318897 1 0
0.306442 1 0
0.305797 0.988026 0
0.311356 0.984037 0
0.353281 0.475965 0
0.364279 0.470398 0
0.370101 0.475793 0
0.368755 0.482737 0
0.358385 0.485436 0
0.353281 0.475965 0
0.0246065 0.0359767 0
0.028532 0.0289596 0
0.034034 0.0274376 0
0.034787 0.0277958 0
0.0382956 0.0395361 0
0.0371328 0.0415753 0
0.0296881 0.0422449 0
0.0246065 0.0359767 0
0.98539 0.363235 0
0.987499 0.363501 0
0.993404 0.371128 0
0.988138 0.377754 0
0.980933 0.378182 0
0.978808 0.369775 0
0.98539 0.363235 0
0.349432 0.491715 0
0.343496 0.486234 0
0.344015 0.479945 0
0.352827 0.475795 0
0.353281 0.475965 0
0.358385 0.485436 0
0.356826 0.489824 0
0.349432 0.491715 0
0.325153 0.982536 0
0.328325 0.983389 0
0.33104 1 0
0.318897 1 0
0.318212 0.98631 0
0.325153 0.982536 0
0.987499 0.363501 0
0.996551 0.354955 0
1 0.354855 0
1 0.371283 0
0.993404 0.371128 0
0.987499 0.363501 0
0.0129239 0.0256464 0
0.0218896 0.0210295 0
0.028532 0.0289596 0
0.0246065 0.0359767 0
0.021315 0.0362727 0
0.0130276 0.0269672 0
0.0129239 0.0256464 0
0.328325 0.983389 0
0.333738 0.981393 0
0.340386 0.983989 0
0.339393 1 0
0.33104 1 0
0.328325 0.983389 0
0.0424951 0 0
0.0534866 0 0
0.0520473 0.0132003 0
0.043856 0.0141467 0
0.0431546 0.0137028 0
0.0424951 0 0
0.351109 0.967572 0
0.359741 0.97011 0
0.357894 0.983275 0
0.351494 0.984602 0
0.346554 0.98188 0
0.347028 0.970064 0
0.351109 0.967572 0
0.349432 0.491715 0
0.356826 0.489824 0
0.361792 0.496804 0
0.35949 0.503447 0
0.350152 0.505097 0
0.346864 0.500369 0
0.349432 0.491715 0
0.0331194 0 0
0.0424951 0 0
0.0431546 0.0137028 0
0.0333485 0.0145841 0
0.0331194 0 0
0.75884 0.373616 0
0.761995 0.375735 0
0.761016 0.387354 0
0.754235 0.389029 0
0.748935 0.385089 0
0.750329 0.37615 0
0.75884 0.373616 0
0.0520473 0.0132003 0
0.0534866 0 0
0.0615522 0 0
0.0620283 0.0141709 0
0.0566966 0.0160499 0
0.0520473 0.0132003 0
0.368484 0.963412 0
0.380732 0.967525 0
0.376665 0.981645 0
0.37413 0.982434 0
0.364054 0.967927 0
0.366434 0.964057 0
0.368484 0.963412 0
0.358385 0.485436 0
0.368755 0.482737 0
0.373143 0.488161 0
0.370942 0.49531 0
0.361792 0.496804 0
0.356826 0.489824 0
0.358385 0.485436 0
0.761995 0.375735 0
0.771125 0.374196 0
0.773412 0.387307 0
0.766054 0.390549 0
0.761016 0.387354 0
0.761995 0.375735 0
0.034787 0.0277958 0
0.0449456 0.0254154 0
0.0475635 0.0270781 0
0.0487969 0.0358893 0
0.0382956 0.0395361 0
0.034787 0.0277958 0
0.783698 0.374906 0
0.783958 0.385752 0
0.778211 0.38904 0
0.773412 0.387307 0
0.771125 0.374196 0
0.771297 0.374013 0
0.783698 0.374906 0
0.372739 0.372752 0
0.379898 0.368008 0
0.384171 0.369554 0
0.386546 0.379533 0
0.381703 0.384113 0
0.373294 0.380494 0
0.372739 0.372752 0
0.359741 0.97011 0
0.364054 0.967927 0
0.37413 0.982434 0
0.372383 0.984333 0
0.36217 0.985843 0
0.357894 0.983275 0
0.359741 0.97011 0
0.0449456 0.0254154 0
0.043856 0.0141467 0
0.0520473 0.0132003 0
0.0566966 0.0160499 0
0.0555117 0.0238591 0
0.0475635 0.0270781 0
0.0449456 0.0254154 0
0.398061 0.369431 0
0.404303 0.366909 0
0.409895 0.371005 0
0.409546 0.380299 0
0.39683 0.381863 0
0.396353 0.381286 0
0.398061 0.369431 0
0.357894 0.983275 0
0.36217 0.985843 0
0.36143 1 0
0.349392 1 0
0.351494 0.984602 0
0.357894 0.983275 0
0.749105 0.401134 0
0.752908 0.399057 0
0.76177 0.402462 0
0.761453 0.410759 0
0.756639 0.414258 0
0.747948 0.4102 0
0.749105 0.401134 0
0.0333026 0.0146179 0
0.0333485 0.0145841 0
0.0431546 0.0137028 0
0.043856 0.0141467 0
0.0449456 0.0254154 0
0.034787 0.0277958 0
0.034034 0.0274376 0
0.0333026 0.0146179 0
0.382325 0.389787 0
0.381703 0.384113 0
0.386546 0.379533 0
0.396353 0.381286 0
0.39683 0.381863 0
0.396809 0.388383 0
0.388564 0.393894 0
0.382325 0.389787 0
0.340386 0.983989 0
0.346554 0.98188 0
0.351494 0.984602 0
0.349392 1 0
0.339393 1 0
0.340386 0.983989 0
0.752908 0.399057 0
0.754235 0.389029 0
0.761016 0.387354 0
0.766054 0.390549 0
0.766053 0.399467 0
0.76177 0.402462 0
0.752908 0.399057 0
0.36217 0.985843 0
0.372383 0.984333 0
0.375217 1 0
0.36143 1 0
0.36217 0.985843 0
0.0555117 0.0238591 0
0.0566966 0.0160499 0
0.0620283 0.0141709 0
0.0652108 0.0150932 0
0.0679243 0.027932 0
0.0670697 0.0286981 0
0.0614539 0.0293673 0
0.0555117 0.0238591 0
0.374151 0.395876 0
0.382325 0.389787 0
0.388564 0.393894 0
0.389225 0.400836 0
0.379964 0.405373 0
0.374802 0.401566 0
0.374151 0.395876 0
0.766054 0.390549 0
0.773412 0.387307 0
0.778211 0.38904 0
0.779296 0.398165 0
0.774036 0.402394 0
0.766053 0.399467 0
0.766054 0.390549 0
0.0475635 0.0270781 0
0.0555117 0.0238591 0
0.0614539 0.0293673 0
0.056037 0.0383067 0
0.0530957 0.0390142 0
0.0487969 0.0358893 0
0.0475635 0.0270781 0
0.39683 0.381863 0
0.409546 0.380299 0
0.412048 0.382872 0
0.411492 0.390086 0
0.403362 0.393993 0
0.396809 0.388383 0
0.39683 0.381863 0
0.379427 0.878267 0
0.388429 0.876242 0
0.388838 0.876435 0
0.391996 0.89127 0
0.388732 0.893526 0
0.377999 0.890188 0
0.379427 0.878267 0
0 0.0359835 0
0.00549917 0.0369453 0
0.0125683 0.0440759 0
0.00911113 0.0489822 0
0 0.0524299 0
0 0.0359835 0
0.388564 0.393894 0
0.396809 0.388383 0
0.403362 0.393993 0
0.402683 0.400294 0
0.393661 0.403968 0
0.389225 0.400836 0
0.388564 0.393894 0
0.783698 0.374906 0
0.785239 0.373448 0
0.793213 0.374358 0
0.797569 0.382235 0
0.797138 0.384138 0
0.790624 0.388126 0
0.783958 0.385752 0
0.783698 0.374906 0
0.00911113 0.0489822 0
0.0125683 0.0440759 0
0.0129874 0.0440101 0
0.0220173 0.04972 0
0.0190314 0.0603335 0
0.015337 0.0625163 0
0.00911113 0.0489822 0
0.388838 0.876435 0
0.396936 0.875103 0
0.405225 0.883237 0
0.398028 0.891668 0
0.391996 0.89127 0
0.388838 0.876435 0
0.409895 0.371005 0
0.418572 0.36779 0
0.422679 0.370356 0
0.422036 0.380533 0
0.412048 0.382872 0
0.409546 0.380299 0
0.409895 0.371005 0
0.021315 0.0362727 0
0.0246065 0.0359767 0
0.0296881 0.0422449 0
0.0271154 0.0479918 0
0.0220173 0.04972 0
0.0129874 0.0440101 0
0.021315 0.0362727 0
0.790624 0.388126 0
0.797138 0.384138 0
0.805781 0.393035 0
0.798747 0.399849 0
0.791348 0.398564 0
0.790624 0.388126 0
0.402019 0.864737 0
0.40347 0.864375 0
0.414673 0.874423 0
0.405475 0.883215 0
0.405225 0.883237 0
0.396936 0.875103 0
0.402019 0.864737 0
0.0271154 0.0479918 0
0.0296881 0.0422449 0
0.0371328 0.0415753 0
0.0410294 0.0485744 0
0.0398672 0.0532805 0
0.0335935 0.0562863 0
0.0271154 0.0479918 0
0.422679 0.370356 0
0.428854 0.368548 0
0.435688 0.373312 0
0.435296 0.379557 0
0.426542 0.384302 0
0.422036 0.380533 0
0.422679 0.370356 0
0.797569 0.382235 0
0.807997 0.377407 0
0.813805 0.381648 0
0.813967 0.385192 0
0.805986 0.393036 0
0.805781 0.393035 0
0.797138 0.384138 0
0.797569 0.382235 0
0 0.0524299 0
0.00911113 0.0489822 0
0.015337 0.0625163 0
0.0149375 0.0631425 0
0 0.0600164 0
0 0.0524299 0
0.411492 0.390086 0
0.412048 0.382872 0
0.422036 0.380533 0
0.426542 0.384302 0
0.426609 0.389386 0
0.417808 0.395315 0
0.411492 0.390086 0
0.374571 0.8922 0
0.377999 0.890188 0
0.388732 0.893526 0
0.387676 0.903116 0
0.379725 0.906516 0
0.375004 0.903534 0
0.374571 0.8922 0
0.403362 0.393993 0
0.411492 0.390086 0
0.417808 0.395315 0
0.417924 0.400281 0
0.408252 0.405543 0
0.402683 0.400294 0
0.403362 0.393993 0
0.778211 0.38904 0
0.783958 0.385752 0
0.790624 0.388126 0
0.791348 0.398564 0
0.788112 0.401115 0
0.779296 0.398165 0
0.778211 0.38904 0
0.426542 0.384302 0
0.435296 0.379557 0
0.442298 0.385145 0
0.442376 0.390095 0
0.432406 0.394313 0
0.426609 0.389386 0
0.426542 0.384302 0
0.391996 0.89127 0
0.398028 0.891668 0
0.403198 0.900488 0
0.401525 0.904069 0
0.393888 0.907092 0
0.387676 0.903116 0
0.388732 0.893526 0
0.391996 0.89127 0
0.0190314 0.0603335 0
0.0220173 0.04972 0
0.0271154 0.0479918 0
0.0335935 0.0562863 0
0.0314539 0.0621506 0
0.0190314 0.0603335 0
0.417808 0.395315 0
0.426609 0.389386 0
0.432406 0.394313 0
0.432036 0.401337 0
0.423349 0.405287 0
0.417924 0.400281 0
0.417808 0.395315 0
0.775381 0.411157 0
0.774036 0.402394 0
0.779296 0.398165 0
0.788112 0.401115 0
0.787862 0.408382 0
0.7811 0.413128 0
0.775381 0.411157 0
0.398028 0.891668 0
0.405225 0.883237 0
0.405475 0.883215 0
0.414547 0.891683 0
0.413359 0.898351 0
0.403198 0.900488 0
[...]
CELL_DATA 6400
FIELD FieldData 3
weight 1 6400 float
 0.0522455 0.0522231 0.0513308 0.0521911 0.0521531 0.0511986 0.0522814 0.0508449 0.0522287 0.0509881 0.0522889 0.0509497 0.0523175 0.0526035 0.0506488 0.0547077 0.0523707 0.0524951 0.0546451 0.0507154 0.0524011 0.0523054 0.0507859 0.0523834 0.0510345 0.0546244 0.05233 0.0541508 0.0524296 0.0511642 0.0546869 0.0540867 0.0524205 0.0540233 0.0547797 0.0510672 0.0524211 0.0548499 0.0508578 0.0541506 0.052373 0.0548098 0.0508245 0.054126 0.0508908 0.0524857 0.0547976 0.0540432 0.0524694 0.0548544 0.0521096 0.0522488 0.0548382 0.0539455 0.0523457 0.0521534 0.0548763 0.0523459 0.053893 0.0522755 0.0524166 0.0548975 0.0538456 0.0523026 0.054887 0.0519591 0.0548762 0.0539669 0.0549173 0.0519619 0.0524029 0.0549099 0.0539835 0.0520661 0.0524087 0.0548206 0.0538276 0.054857 0.0521745 0.0524588 0.0538948 0.0548758 0.052521 0.0522363 0.0540944 0.054821 0.0548409 0.0525347 0.0520498 0.0540649 0.0548021 0.0524607 0.0520832 0.054001 0.0524888 0.0548571 0.0518178 0.054131 0.0549084 0.0525309 0.0518304 0.054894 0.0540468 0.0525581 0.0516457 0.0549249 0.053931 0.052524 0.0548915 0.0516224 0.0538178 0.0525284 0.0549204 0.0539023 0.052472 0.0517008 0.054939 0.0539576 0.0526434 0.0519196 0.0549216 0.0525854 0.053804 0.0519118 0.0525814 0.0549358 0.0519276 0.0537383 0.0525742 0.0517178 0.0536757 0.0549538 0.0517817 0.0526652 0.0537064 0.0526073 0.0549404 0.0517793 0.0537775 0.0526438 0.054937 0.0522235 0.0536554 0.052692 0.054956 0.0536114 0.0527417 0.0549613 0.0521771 0.053596 0.0549622 0.0528013 0.0535197 0.0523102 0.0527472 0.0535614 0.0549656 0.0527632 0.0520264 0.0549734 0.0527039 0.0534042 0.0521221 0.0549725 0.052814 0.0534553 0.0522634 0.0549691 0.0525841 0.0534951 0.0549792 0.0522226 0.0526326 0.0536999 0.0549585 0.0527128 0.0549509 0.0537594 0.0521959 0.0526462 0.0549763 0.0536185 0.0520901 0.0549645 0.0526782 0.0536168 0.0549456 0.0520362 0.0526182 0.0537088 0.0549649 0.0518518 0.0527057 0.0549732 0.0535954 0.0519619 0.0527222 0.0549822 0.0535183 0.0528275 0.0517218 0.0534487 0.0549853 0.0527712 0.051826 0.0533782 0.0549844 0.0527846 0.0518626 0.0535218 0.0549832 0.0528374 0.0534292 0.0519645 0.0549833 0.0528931 0.053326 0.0520102 0.0523236 0.0549922 0.0523453 0.0541415 0.0518981 0.0547983 0.0523874 0.0517122 0.0540489 0.0524372 0.054795 0.0523744 0.0540903 0.0517121 0.0548331 0.052334 0.054832 0.054126 0.0517709 0.0524752 0.0547915 0.0524206 0.0539991 0.0514819 0.054859 0.0524686 0.051441 0.0548198 0.0539564 0.0525155 0.0548937 0.0514614 0.0538766 0.0525599 0.054864 0.0515714 0.0538462 0.0549048 0.0525947 0.0549261 0.0539107 0.0548746 0.0525107 0.0513011 0.0549194 0.0525829 0.0526148 0.0524104 0.0524082 0.0523491 0.052461 0.0524657 0.0524385 0.0523634 0.0525173 0.0524834 0.0537969 0.052565 0.0512932 0.052521 0.0548969 0.0537738 0.0513047 0.0526278 0.0516188 0.0547403 0.052598 0.0541432 0.0516409 0.0525673 0.0547791 0.0540382 0.0513701 0.0526086 0.0548012 0.0514988 0.0540434 0.0515093 0.0526582 0.0547146 0.0514589 0.0526625 0.0540794 0.0547501 0.0511478 0.0526663 0.0539549 0.0511397 0.0527165 0.0547695 0.0509403 0.0548443 0.0527437 0.0539727 0.0509408 0.0526694 0.050983 0.0538381 0.0527344 0.0512085 0.0539446 0.0548747 0.0527732 0.0511543 0.0537591 0.0548598 0.05117 0.0528069 0.0548208 0.0537128 0.0512958 0.0528532 0.0509899 0.0538594 0.0548334 0.0510423 0.0529127 0.0510054 0.052891 0.0538735 0.0528277 0.0515909 0.0549452 0.053693 0.0528711 0.0516277 0.0549663 0.0549495 0.0537771 0.0529389 0.051571 0.0549346 0.0537414 0.0549274 0.0526972 0.0514636 0.0536544 0.0527399 0.0514705 0.0536479 0.0527918 0.0549438 0.053555 0.0515592 0.0549775 0.0527251 0.0536831 0.0515852 0.0549789 0.0528099 0.0535556 0.0514049 0.0527854 0.0535753 0.0514395 0.0528528 0.0534927 0.0549746 0.0512793 0.054957 0.0533589 0.0529196 0.0549642 0.0513195 0.052956 0.0533071 0.0549664 0.0513291 0.0528592 0.0533987 0.0511501 0.0534549 0.052934 0.0510089 0.0548921 0.0533574 0.0511485 0.052985 0.0549119 0.0534526 0.0528451 0.0510141 0.0549128 0.0527971 0.0512212 0.0532453 0.0548397 0.052917 0.0512511 0.0535937 0.0529698 0.0528985 0.0536262 0.051331 0.0529271 0.0534752 0.0511903 0.0548768 0.0528569 0.051027 0.0548828 0.0528758 0.0534871 0.0510307 0.0549341 0.0529804 0.0530374 0.0533881 0.0529549 0.0533462 0.0549163 0.0530906 0.0532551 0.053079 0.0549405 0.0530188 0.0532436 0.0549172 0.053037 0.0532746 0.051046 0.0533783 0.0530979 0.0549053 0.053138 0.0531676 0.0548377 0.0528833 0.0548988 0.0532898 0.052955 0.0548596 0.0541383 0.0530075 0.054829 0.0534005 0.0529447 0.0547946 0.0540938 0.053009 0.0547855 0.0532571 0.0541407 0.0530554 0.0540841 0.054819 0.0531784 0.0530961 0.0541338 0.0530585 0.0548564 0.0533625 0.05322 0.0533199 0.0548327 0.0531912 0.0532417 0.0542137 0.0547912 0.0531367 0.0531423 0.0547433 0.0541825 0.053135 0.0530497 0.0547889 0.0531291 0.0531779 0.0547466 0.0541938 0.0529542 0.0547126 0.0532594 0.0540799 0.0530997 0.0531338 0.0541198 0.0547678 0.0530595 0.0540639 0.0532091 0.054734 0.0540989 0.0529446 0.0532629 0.0546614 0.052984 0.0532697 0.0532341 0.053188 0.0546911 0.0541701 0.0531482 0.0546747 0.0533218 0.0541538 0.0531226 0.0532086 0.0531935 0.0547461 0.0532743 0.0532698 0.0541544 0.0533264 0.0531559 0.0533321 0.0542946 0.0530961 0.0534494 0.0542659 0.053389 0.0529959 0.0533925 0.05335 0.0530378 0.0534243 0.0528981 0.0543451 0.0530136 0.0534251 0.0543805 0.0529243 0.0533043 0.0528154 0.0532697 0.0544418 0.0533715 0.0528901 0.0543836 0.053405 0.0526858 0.0542282 0.0533021 0.0528414 0.0533454 0.0543001 0.0527851 0.0533869 0.0526991 0.0534421 0.0525654 0.0542779 0.0534557 0.0523961 0.0542099 0.0535013 0.0524798 0.0543507 0.0535096 0.0526152 0.0542884 0.0524731 0.0535016 0.0523812 0.0528373 0.0543692 0.0526365 0.0535827 0.0540457 0.0527156 0.0530428 0.0540264 0.0527504 0.0539998 0.0528036 0.0529921 0.0528172 0.0541282 0.0529728 0.0526918 0.0540892 0.0530864 0.0526073 0.0540504 0.0525522 0.0540993 0.0530159 0.0523521 0.0539801 0.0524346 0.0531513 0.0525208 0.0530746 0.0524802 0.0539706 0.0523222 0.0539168 0.0531323 0.0523875 0.0540297 0.0531759 0.0540346 0.0532294 0.0532176 0.0531103 0.0530591 0.0532628 0.0540217 0.0532123 0.053127 0.0539757 0.0533026 0.0532043 0.0542533 0.053005 0.0530257 0.0530416 0.0542001 0.0531093 0.052982 0.0541871 0.0528924 0.0531764 0.0541703 0.0529308 0.0530882 0.0543125 0.052865 0.0528265 0.0530592 0.0542384 0.0531564 0.0531372 0.0543265 0.053055 0.0541034 0.0531943 0.0529942 0.0532396 0.0531078 0.0533262 0.0541758 0.0540962 0.052943 0.0533862 0.0542399 0.0532565 0.0542976 0.0529679 0.0529027 0.0533519 0.0527991 0.0542278 0.0532805 0.0527302 0.0541591 0.0534173 0.0528372 0.0544856 0.0528696 0.0533172 0.0526123 0.0545617 0.0533366 0.0527078 0.0545346 0.0534106 0.0527299 0.0527869 0.0534597 0.0526227 0.0546187 0.05336 0.0527378 0.0546414 0.0534266 0.0545755 0.0526761 0.0534988 0.0544262 0.0525662 0.0525612 0.0535224 0.0524516 0.0545094 0.0522906 0.0535528 0.054467 0.052365 0.0544542 0.0522533 0.0546221 0.0525057 0.0536837 0.0523602 0.0536208 0.0545784 0.0524468 0.0546397 0.0535909 0.0521994 0.0545431 0.0523247 0.0535909 0.0526788 0.0536549 0.052486 0.0546954 0.0525841 0.0537242 0.0547686 0.0525652 0.0547898 0.0524654 0.054725 0.0523814 0.0523052 0.0522363 0.0548232 0.0521385 0.0534576 0.0522616 0.0521954 0.053558 0.0548832 0.0520831 0.0535237 0.0548341 0.0520348 0.0534875 0.0548481 0.0521443 0.0547081 0.0521825 0.0535292 0.0520822 0.0519744 0.0535929 0.0547761 0.0546624 0.0520949 0.0536248 0.0547239 0.0523487 0.0523009 0.0538088 0.0547322 0.0524813 0.0536943 0.0548504 0.0524677 0.0522291 0.0547966 0.0537576 0.0543934 0.0521687 0.0537732 0.0524061 0.0523292 0.0536612 0.0544236 0.0519258 0.0543818 0.0518696 0.0544908 0.0538458 0.0545245 0.0520226 0.053735 0.0520461 0.0519262 0.052435 0.0544801 0.0517987 0.0523606 0.0543147 0.0519552 0.052175 0.0543672 0.0525271 0.0523336 0.052446 0.0522857 0.0542926 0.0523642 0.0521001 0.0545044 0.0522079 0.0525036 0.0544141 0.0544643 0.0522513 0.0525509 0.0526062 0.0525811 0.0546791 0.0545984 0.0527807 0.0526423 0.05457 0.0526938 0.0526964 0.0526128 0.0525991 0.052536 0.0547674 0.0526555 0.0527531 0.054735 0.0524524 0.0547059 0.052871 0.0523752 0.0546524 0.0525594 0.0529517 0.0524845 0.0545634 0.053057 0.0523868 0.0545426 0.0528111 0.0524391 0.0544441 0.0529318 0.0525161 0.052465 0.0526052 0.0546599 0.0526333 0.0526833 0.0546292 0.0525435 0.0525916 0.0526626 0.0545931 0.0523116 0.0526543 0.052388 0.0526187 0.0525119 0.0545846 0.0526834 0.0538843 0.0525443 0.05388 0.0527936 0.0527322 0.0538258 0.0527614 0.0527118 0.0528951 0.0539374 0.052665 0.0527734 0.0539559 0.0539086 0.0528116 0.0528523 0.0538558 0.0518665 0.0537804 0.0517313 0.0527518 0.0518444 0.0527234 0.0516583 0.0537837 0.0517456 0.0537378 0.0528128 0.0519176 0.0536945 0.0528841 0.0518052 0.0538449 0.0519936 0.052895 0.0520324 0.0521157 0.0537861 0.0529706 0.0538107 0.0521424 0.0537288 0.051894 0.0530113 0.0520359 0.0540919 0.0516957 0.0529241 0.0515978 0.0517612 0.0529979 0.0540304 0.0516446 0.0539832 0.0530408 0.0517049 0.0539789 0.0539252 0.0519292 0.0527406 0.0520521 0.0527868 0.0519223 0.0540469 0.0528148 0.0518068 0.0541363 0.0528585 0.0518949 0.0540975 0.0520428 0.052794 0.0522371 0.0528916 0.0538931 0.0524061 0.0528711 0.053851 0.0524723 0.0539472 0.0529401 0.0521669 0.0540353 0.0523348 0.052958 0.0523132 0.0530851 0.0526063 0.0540189 0.0530141 0.052761 0.0539156 0.0539699 0.0528301 0.0530796 0.0525572 0.0530146 0.0524882 0.0536645 0.0536519 0.0526723 0.0529436 0.0535964 0.0527287 0.0537295 0.0531142 0.0522632 0.0536745 0.0523851 0.0521661 0.0524613 0.0524003 0.0536134 0.0525292 0.0521616 0.0535416 0.0524002 0.0534945 0.0524596 0.0523143 0.0523868 0.052466 0.0526071 0.0525412 0.0534384 0.0546903 0.052732 0.0535684 0.0525585 0.0536162 0.0546346 0.0524121 0.0526082 0.0546875 0.0535617 0.0525764 0.0527644 0.0546422 0.0527644 0.052529 0.0547932 0.0535062 0.052694 0.0527015 0.0537766 0.0547883 0.0526907 0.0531676 0.0538397 0.0547368 0.0526208 0.0532696 0.0527081 0.054775 0.0531543 0.0523879 0.0536969 0.054749 0.0524757 0.0537656 0.0530436 0.0547461 0.052478 0.0546914 0.053257 0.0538876 0.0526157 0.0547133 0.0537368 0.0533689 0.0525512 0.0546892 0.0533935 0.0524878 0.0546693 0.0523913 0.0538169 0.053501 0.0545754 0.052624 0.0536594 0.0534835 0.0546453 0.0525609 0.0536421 0.0546964 0.0536019 0.0526417 0.0546959 0.0533612 0.0546344 0.0527573 0.05358 0.0546405 0.0534662 0.0526863 0.0537647 0.0545913 0.0535965 0.0537186 0.0545794 0.0528296 0.0529494 0.054621 0.0536183 0.0527478 0.0530357 0.0546009 0.0532539 0.0528321 0.0545475 0.0529016 0.0545287 0.053152 0.0542051 0.0545659 0.0529646 0.0530704 0.0541793 0.0528497 0.054488 0.0542676 0.0529169 0.0527972 0.0544642 0.0530604 0.0529301 0.0531774 0.054358 0.0530182 0.0546311 0.0533391 0.0534649 0.0531592 0.0546118 0.0534653 0.0546267 0.0530881 0.0531972 0.0545595 0.053077 0.0533084 0.0545776 0.0530235 0.0533675 0.0545796 0.0531634 0.0537048 0.0546315 0.0528711 0.0545858 0.0537057 0.052945 0.0545824 0.0538057 0.0528365 0.0545333 0.0535819 0.0545267 0.0529187 0.0538159 0.0545346 0.0537928 0.0530041 0.05451 0.0536909 0.0531044 0.0545318 0.0530291 0.0539127 0.0545317 0.0531391 0.0544781 0.0531995 0.0539955 0.0544572 0.0544884 0.0531539 0.0540703 0.0544772 0.0530689 0.0539251 0.0538939 0.0532269 0.0530898 0.0539813 0.0543044 0.0531696 0.0535766 0.0535944 0.0532236 0.0536988 0.0531263 0.0537142 0.0532539 0.053582 0.0532081 0.0534692 0.0533129 0.0536616 0.0533739 0.0538183 0.0534659 0.0539196 0.0539229 0.0534505 0.0538162 0.0533468 0.053735 0.0533996 0.0538235 0.0534957 0.0529585 0.0531538 0.0530885 0.0532397 0.0530928 0.0532989 0.0529731 0.0531825 0.0528456 0.0532732 0.0528623 0.0533315 0.053386 0.0532375 0.0532291 0.0535411 0.0534425 0.0533426 0.0530738 0.0534712 0.0533128 0.0534149 0.0532023 0.0535775 0.0528232 0.0535532 0.0529575 0.0536264 0.0529494 0.0537231 0.0528123 0.0535655 0.0536468 0.0537402 0.0544781 0.0544782 0.0536948 0.0544133 0.0537916 0.054421 0.0538697 0.0544211 0.0538173 0.0543724 0.0538891 0.0545243 0.0545208 0.0539767 0.0544716 0.0536623 0.0544568 0.0545048 0.0536404 0.053582 0.0544 0.0537599 0.0544261 0.0544476 0.0536694 0.0543646 0.0537404 0.0543322 0.0526856 0.0538411 0.0544122 0.0538368 0.0529231 0.0544037 0.0531651 0.0539405 0.0543236 0.0530531 0.054347 0.0540086 0.0532752 0.05436 0.0539069 0.0530429 0.0538634 0.0542699 0.0531716 0.0542965 0.0539499 0.0543812 0.0531318 0.0540312 0.0542683 0.0534369 0.0531881 0.0535227 0.0542407 0.0532849 0.0536165 0.0542101 0.0533594 0.0533872 0.0546707 0.0534756 0.0532653 0.0535087 0.0532385 0.0545915 0.0537109 0.0533978 0.0536034 0.0533305 0.0546366 0.0537985 0.0545568 0.0535138 0.0534549 0.0546204 0.0537619 0.0536049 0.0545455 0.0535566 0.0534897 0.0545078 0.0536783 0.0535473 0.053632 0.0545229 0.0536772 0.0533534 0.0544783 0.0534379 0.0536452 0.0544739 0.0533864 0.0532449 0.0544397 0.0532264 0.0532911 0.054501 0.053324 0.0533658 0.0544601 0.0534461 0.0533741 0.0544397 0.0535069 0.0535008 0.0544079 0.0544208 0.0535908 0.0534081 0.0543314 0.0534674 0.0543836 0.053327 0.0515443 0.0542805 0.0534691 0.0515957 0.0543169 0.0516415 0.0535968 0.0543737 0.0514563 0.0535534 0.0542096 0.0514935 0.0536434 0.051553 0.0516183 0.0535537 0.0542092 0.0517682 0.0537469 0.0518616 0.0542692 0.0536531 0.0520011 0.0543386 0.0536965 0.0517362 0.0544174 0.0537631 0.0517459 0.0538564 0.0543729 0.0519762 0.0537666 0.0542846 0.0518504 0.0537524 0.0515121 0.0543752 0.0514219 0.0538602 0.0542811 0.0516 0.0539293 0.054233 0.0514765 0.0513785 0.0540127 0.0542471 0.0515942 0.051518 0.0540515 0.0541596 0.0517097 0.0541053 0.0518206 0.0519053 0.0539411 0.0541627 0.051713 0.0539874 0.0541753 0.0517643 0.0540394 0.0521019 0.0540971 0.0541219 0.0522539 0.0543243 0.053827 0.0522316 0.0537405 0.0519604 0.0539168 0.0538849 0.0542294 0.0537941 0.0541851 0.0538816 0.0541679 0.0541284 0.0539641 0.0541353 0.0539743 0.0540877 0.054067 0.0541476 0.0540278 0.0540706 0.0540267 0.0540701 0.0539758 0.0540225 0.0539257 0.054085 0.0543762 0.0541514 0.0543466 0.0534583 0.0542844 0.0535168 0.0543076 0.0534953 0.0541937 0.05352 0.0542131 0.0542543 0.0535672 0.0535731 0.0541465 0.0536268 0.0542164 0.0536287 0.0536577 0.0520848 0.0535688 0.0536753 0.0521064 0.0536742 0.0537338 0.0541607 0.0536998 0.0540803 0.0537862 0.054185 0.0535844 0.0542396 0.0535684 0.0541153 0.0541481 0.0536366 0.0536572 0.0541219 0.0537104 0.0540989 0.0540491 0.0536656 0.0540242 0.0536679 0.0541014 0.0537422 0.0540215 0.0537036 0.0539429 0.0537738 0.0539369 0.0538119 0.0541063 0.0538009 0.054001 0.0537894 0.0540622 0.0538762 0.0540487 0.0539275 0.053897 0.0539555 0.0537322 0.0538472 0.0538681 0.0537892 0.0538025 0.0539099 0.0537414 0.0538846 0.0538312 0.0538414 0.0538738 0.0538007 0.0538688 0.0538365 0.0539351 0.0539826 0.0539409 0.0538537 0.0539194 0.0538305 0.0538958 0.05394 0.0538452 0.0538932 0.053759 0.0539754 0.0537407 0.053978 0.0537624 0.0539048 0.0537381 0.0538702 0.053955 0.0539243 0.0539716 0.0541351 0.0540183 0.0541027 0.0540977 0.0540474 0.0540207 0.0539953 0.0541485 0.0542388 0.0541889 0.0540482 0.0541108 0.0540606 0.0540615 0.0541089 0.0544991 0.0541127 0.0541779 0.0544034 0.0538207 0.0544296 0.0537364 0.0543428 0.0545191 0.0538174 0.0545429 0.0538195 0.054457 0.0538742 0.0542701 0.0537731 0.052226 0.053971 0.0523775 0.0539019 0.0538688 0.0524233 0.0539703 0.0525358 0.0540133 0.0539387 0.0523787 0.0540492 0.0524835 0.0538765 0.0520164 0.0540257 0.0521514 0.0539352 0.0519009 0.0540254 0.0520389 0.0539155 0.0523012 0.0539863 0.0540855 0.0523012 0.0540677 0.0524177 0.0541655 0.0521526 0.0541195 0.0521786 0.054194 0.0543625 0.0541275 0.0542352 0.0524035 0.0542554 0.0544025 0.0540608 0.054315 0.0522937 0.0513417 0.0539853 0.0543488 0.0514189 0.0540607 0.0542551 0.0515028 0.054147 0.0512978 0.0539704 0.0541306 0.0513897 0.0541458 0.0539066 0.0514559 0.0542268 0.0539031 0.0516806 0.0542073 0.0516129 0.0541594 0.051818 0.0542329 0.0515786 0.0542379 0.0516815 0.0542995 0.054297 0.051251 0.0513424 0.0543819 0.0514189 0.0542176 0.0513196 0.0543149 0.051206 0.0512613 0.0542659 0.0543481 0.0513412 0.0515451 0.0544155 0.0515757 0.0543736 0.0516826 0.0543078 0.0516392 0.0543995 0.0514798 0.0544494 0.0514303 0.0544744 0.0536366 0.0515486 0.0538463 0.0519478 0.0540361 0.0545711 0.0520559 0.0539952 0.0535732 0.0545322 0.052065 0.0539752 0.0539197 0.053676 0.0518089 0.0538124 0.0518056 0.0540018 0.0536676 0.0543912 0.0539739 0.0519323 0.0537687 0.0540228 0.0519346 0.0544331 0.0540042 0.0537132 0.0521835 0.0540434 0.054404 0.0521928 0.0539205 0.0540524 0.0543436 0.0538754 0.0523021 0.0540073 0.0543523 0.0520592 0.054052 0.0537637 0.0540209 0.054371 0.0520919 0.0538181 0.0540763 0.0543689 0.0541568 0.0522063 0.0543171 0.0541224 0.0541508 0.0517587 0.0543277 0.0540729 0.0540818 0.0518657 0.0542592 0.0541182 0.0540164 0.0516745 0.0543205 0.0541016 0.0542358 0.0542665 0.051851 0.0541806 0.0541856 0.0517523 0.0542806 0.0541093 0.0542945 0.0541054 0.0517907 0.0542801 0.0542337 0.0540819 0.0519695 0.0541795 0.0538633 0.054195 0.0519676 0.0539727 0.0542242 0.0542429 0.0521164 0.0542076 0.053898 0.05416 0.0518829 0.054271 0.0541805 0.053798 0.0520231 0.0542044 0.0542324 0.0542113 0.0540074 0.0543591 0.0520427 0.0541533 0.0542561 0.053928 0.054134 0.05262 0.0541478 0.0543843 0.054937 0.0527081 0.0543054 0.054314 0.0528048 0.054032 0.0548892 0.0542165 0.0540528 0.0549359 0.0528179 0.0542915 0.0541069 0.0527017 0.054237 0.0541099 0.055008 0.0525565 0.0542499 0.0541527 0.0549759 0.052741 0.0541631 0.0541118 0.0550064 0.0526497 0.0541865 0.0541813 0.0549701 0.0529307 0.0549296 0.0540963 0.0541546 0.0530096 0.0549026 0.0540757 0.0541373 0.053032 0.0548359 0.0541346 0.054099 0.0528688 0.0548762 0.0541005 0.054009 0.0549597 0.0529091 0.0541279 0.0541891 0.0549445 0.0541081 0.0525155 0.0541631 0.0541832 0.054914 0.0525783 0.0541182 0.0541706 0.0550529 0.0526622 0.0542489 0.0540713 0.055033 0.052428 0.0550317 0.0541873 0.0540441 0.0525312 0.0550601 0.0540839 0.0542545 0.0527955 0.0540493 0.054377 0.0550663 0.052718 0.0539616 0.0550466 0.0543138 0.0528513 0.0539369 0.0550489 0.0526014 0.0550201 0.0544027 0.054026 0.0549987 0.0526606 0.0539954 0.0543132 0.0549875 0.0527533 0.0550262 0.0538968 0.0542258 0.0527902 0.0549954 0.0542773 0.0541293 0.0531032 0.0550053 0.0540783 0.0543052 0.0531785 0.054809 0.0540895 0.0542272 0.0532756 0.0548738 0.0542468 0.0530852 0.0547731 0.0540608 0.0530093 0.0543357 0.0549062 0.0540083 0.0548756 0.053196 0.0544138 0.0548449 0.0539905 0.0531063 0.0543862 0.0540883 0.0547365 0.0532896 0.0547969 0.0543316 0.0540722 0.0547566 0.0533485 0.0540109 0.0542839 0.054677 0.0540124 0.0534216 0.0543245 0.0539301 0.0547036 0.0544176 0.0532052 0.0548629 0.0544316 0.0539454 0.0548188 0.0533561 0.0538915 0.0543382 0.0547509 0.0539147 0.0532839 0.0543878 0.0549616 0.0528796 0.054484 0.0549244 0.0538523 0.0529362 0.0543244 0.0549077 0.0549452 0.052962 0.0544154 0.0537621 0.0530063 0.0549784 0.0544419 0.0538114 0.0549453 0.052827 0.0545138 0.0539398 0.0549099 0.0529054 0.0545645 0.0538261 0.0548648 0.0531627 0.0545058 0.0548165 0.0538512 0.053073 0.0548156 0.0545732 0.0537834 0.0549065 0.054487 0.0537192 0.0532301 0.0548637 0.0545366 0.0530058 0.0537647 0.0548192 0.0546234 0.0530923 0.0539985 0.0548571 0.0539209 0.05241 0.054613 0.0540019 0.0523113 0.0550633 0.0546585 0.0525098 0.0550621 0.0539362 0.0522934 0.0545728 0.0550578 0.0538493 0.0524096 0.0546473 0.0550566 0.0539328 0.0523504 0.0547061 0.0538836 0.0550544 0.0525127 0.0546513 0.0539658 0.0550446 0.0545888 0.0550481 0.0526863 0.0538492 0.0546995 0.0550441 0.0538344 0.0525967 0.054736 0.0550265 0.0524373 0.0537948 0.0550355 0.053865 0.052531 0.0547956 0.055032 0.0537742 0.0550324 0.0544555 0.0521578 0.0537675 0.0550139 0.0545183 0.0522688 0.0550369 0.0544409 0.0536634 0.0522542 0.0550287 0.0545466 0.0521403 0.0536733 0.0545889 0.0536763 0.0545174 0.0550121 0.0521292 0.0537521 0.0546234 0.0550234 0.0523799 0.0537397 0.0546543 0.0524824 0.0536323 0.0550063 0.0544818 0.0523544 0.0536972 0.0550107 0.0522459 0.0545009 0.055015