# vtk DataFile Version 3.0
vtk output
ASCII
DATASET UNSTRUCTURED_GRID
POINTS 23522 float
0 0 0
1 0 0
1 1 0
0 1 0
0 0 0
0 0 0
1 0 0
1 1 0
0 1 0
0 0 0
0 0 0
1 0 0
1 1 0
0 1 0
0 0 0
0 0 0
1 0 0
1 1 0
0 1 0
0 0 0
0 0 0
1 0 0
1 1 0
0 1 0
0 0 0
0 0 0
1 0 0
1 1 0
0 1 0
0 0 0
0 0 0
1 0 0
1 1 0
0 1 0
0 0 0
0 0 0
1 0 0
1 1 0
0 1 0
0 0 0
0 0 0
1 0 0
1 1 0
0 1 0
0 0 0
0 0 0
1 0 0
1 1 0
0 1 0
0 0 0
0 0 0
1 0 0
1 1 0
0 1 0
0 0 0
0 0 0
1 0 0
1 1 0
0 1 0
0 0 0
0 0 0
0.155344 0 0
0 0.288843 0
0 0 0
0 0 0
1 0 0
1 1 0
0 1 0
0 0 0
0 0 0
1 0 0
1 1 0
0 1 0
0 0 0
0 0 0
1 0 0
1 1 0
0 1 0
0 0 0
0 0 0
1 0 0
1 1 0
0 1 0
0 0 0
0.836959 0 0
1 0 0
1 0.0601257 0
0.836959 0 0
0 0 0
1 0 0
1 1 0
0 1 0
0 0 0
0 0 0
1 0 0
1 1 0
0 1 0
0 0 0
0 0 0
1 0 0
1 1 0
0 1 0
0 0 0
0 0 0
1 0 0
1 1 0
0 1 0
0 0 0
0 0 0
1 0 0
1 1 0
0 1 0
0 0 0
0 0.923546 0
0.0410669 1 0
0 1 0
0 0.923546 0
0 0 0
1 0 0
1 1 0
0 1 0
0 0 0
0 0 0
1 0 0
1 1 0
0 1 0
0 0 0
0 0 0
1 0 0
1 1 0
0 1 0
0 0 0
0 0 0
1 0 0
1 1 0
0 1 0
0 0 0
0 0 0
1 0 0
1 1 0
0 1 0
0 0 0
0 0.893409 0
0.0356447 1 0
0 1 0
0 0.893409 0
0 0 0
1 0 0
1 1 0
0 1 0
0 0 0
0 0.69734 0
0.0739825 0.846972 0
0.144456 1 0
0 1 0
0 0.69734 0
0.571234 0 0
1 0 0
1 0.211892 0
0.870023 0.150495 0
0.571234 0 0
0 0.931296 0
0.0270331 1 0
0 1 0
0 0.931296 0
0.283755 0 0
1 0 0
1 0.464088 0
0.283755 0 0
0 0.743126 0
0.143263 1 0
0 1 0
0 0.743126 0
0.9816 0.190875 0
0.554377 0 0
1 0 0
1 0.198655 0
0.9816 0.190875 0
0 0.366859 0
0.576373 1 0
0 1 0
0 0.366859 0
0 0 0
0.456577 0 0
0 0.730104 0
0 0 0
0 0 0
1 0 0
1 0.128874 0
0 0.480149 0
0 0 0
0 0 0
0.54489 0 0
0.15875 1 0
0 1 0
0 0 0
0.143408 0 0
1 0 0
1 0.675643 0
0.143408 0 0
0.191227 0 0
1 0 0
1 0.611799 0
0.46763 0.214192 0
0.191227 0 0
0 0.227003 0
0.128126 0.344634 0
0.806547 1 0
0 1 0
0 0.227003 0
0 0 0
1 0 0
1 0.190988 0
0 0.508173 0
0 0 0
0 0.551988 0
0.0467641 0.626049 0
0.26851 1 0
0 1 0
0 0.551988 0
0 0 0
1 0 0
1 0.205841 0
0 0.737666 0
0 0 0
0 0 0
0.512192 0 0
0.15796 1 0
0 1 0
0 0 0
0 0 0
1 0 0
1 0.199392 0
0.444222 0.38562 0
0 0.530171 0
0 0 0
0 0.279618 0
0.699606 1 0
0 1 0
0 0.279618 0
0 0 0
0.748731 0 0
0.311305 1 0
0 1 0
0 0 0
0 0 0
1 0 0
1 0.0866232 0
0.381172 0.486897 0
0.254813 0.565244 0
0 0.716015 0
0 0 0
0.201426 0 0
1 0 0
1 0.629659 0
0.466647 0.21433 0
0.201426 0 0
0.291433 0 0
1 0 0
1 0.504028 0
0.291433 0 0
0 0 0
0.211765 0 0
0.772294 1 0
0 1 0
0 0 0
0.26407 0 0
1 0 0
1 0.50286 0
0.26407 0 0
0.0814886 0 0
1 0 0
1 0.876754 0
0.343767 0.25384 0
0.0814886 0 0
0 0 0
0.415484 0 0
0.906853 1 0
0 1 0
0 0 0
0 0 0
1 0 0
1 0.205657 0
0.799242 0.303317 0
0.482555 0.44606 0
0 0.659033 0
0 0 0
0 0 0
0.200511 0 0
0.291013 0.157107 0
0.620417 0.755121 0
0.749723 1 0
0 1 0
0 0 0
0.0918206 0 0
1 0 0
1 0.910348 0
0.340722 0.25313 0
0.0918206 0 0
0 0 0
0.0665482 0 0
0.376712 0.497303 0
0.675934 1 0
0 1 0
0 0 0
0 0 0
0.30932 0 0
0.865993 1 0
0 1 0
0 0 0
0.948913 0 0
1 0 0
1 0.0320458 0
0.948913 0 0
0 0.386797 0
0.526176 1 0
0 1 0
0 0.386797 0
0.579789 0 0
1 0 0
1 0.283741 0
0.579789 0 0
0.812447 0 0
1 0 0
1 0.0677429 0
0.812447 0 0
0 0.628376 0
0.214898 1 0
0 1 0
0 0.628376 0
0.865059 0 0
1 0 0
1 0.0599066 0
0.865059 0 0
0 0.213451 0
0.136035 0.328697 0
0.889837 1 0
0 1 0
0 0.213451 0
0 0.586009 0
0.251675 1 0
0 1 0
0 0.586009 0
0 0.407158 0
0.126118 0.547035 0
0.286106 0.732811 0
0.506973 1 0
0 1 0
0 0.407158 0
0.987723 0 0
1 0 0
1 0.00767267 0
0.987723 0 0
0 0 0
0.771719 0 0
0.572958 0.402556 0
0.268363 1 0
0 1 0
0 0 0
0 0.263594 0
0.756483 1 0
0 1 0
0 0.263594 0
0.962371 0 0
1 0 0
1 0.0164955 0
0.962371 0 0
0 0 0
0.766966 0 0
0.315498 1 0
0 1 0
0 0 0
0 0 0
0.704857 0 0
0.297589 1 0
0 1 0
0 0 0
0.944413 0 0
1 0 0
1 0.0378268 0
0.944413 0 0
0 0 0
0.200202 0 0
0.825426 1 0
0 1 0
0 0 0
0.776046 0 0
1 0 0
1 0.191582 0
0.776046 0 0
0.967495 0.388699 0
0.436318 0 0
1 0 0
1 0.411354 0
0.967495 0.388699 0
0 0 0
0.00707413 0 0
0.500169 1 0
0 1 0
0 0 0
0.373661 0 0
1 0 0
1 0.379156 0
0.520844 0.092509 0
0.373661 0 0
0 0 0
0.0672223 0 0
0.544873 1 0
0 1 0
0 0 0
0.592219 0 0
1 0 0
1 0.291237 0
0.592219 0 0
0.373994 0 0
1 0 0
1 0.404342 0
0.515887 0.0951329 0
0.373994 0 0
0.211018 0 0
1 0 0
1 0.721316 0
0.44291 0.217654 0
0.211018 0 0
0.294209 0 0
1 0 0
1 0.53276 0
0.294209 0 0
0.313882 0 0
1 0 0
1 0.565096 0
0.313882 0 0
0 0.924221 0
0.102095 1 0
0 1 0
0 0.924221 0
0.464997 0 0
1 0 0
1 0.324725 0
0.464997 0 0
0.549032 0 0
1 0 0
1 0.34338 0
0.549032 0 0
0.571824 0 0
1 0 0
1 0.214907 0
0.571824 0 0
0 0.984331 0
0.0116395 1 0
0 1 0
0 0.984331 0
0.668886 0 0
1 0 0
1 0.178138 0
0.668886 0 0
0 0.956234 0
0.0139663 1 0
0 1 0
0 0.956234 0
0.534524 0.203386 0
0.345642 0 0
1 0 0
1 0.683567 0
0.534524 0.203386 0
0 0.651576 0
0.0967573 0.817965 0
0.195945 1 0
0 1 0
0 0.651576 0
0.359754 0 0
1 0 0
1 0.47098 0
0.497305 0.104969 0
0.359754 0 0
0.44629 0 0
1 0 0
1 0.349328 0
0.44629 0 0
0 0.949027 0
0.0250027 1 0
0 1 0
0 0.949027 0
0 0 0
1 0 0
1 0.232709 0
0.0533313 0.580179 0
0 0.5985 0
0 0 0
0 0.65321 0
0.268371 1 0
0 1 0
0 0.65321 0
0 0 0
1 0 0
1 0.239124 0
0.74679 0.381972 0
0.568112 0.480892 0
0 0.771575 0
0 0 0
0 0.666779 0
0.246209 1 0
0 1 0
0 0.666779 0
0 0 0
1 0 0
1 0.447457 0
0.5897 0.744361 0
0 0.326842 0
0 0 0
0 0.996077 0
0.00268266 1 0
0 1 0
0 0.996077 0
0 0 0
1 0 0
1 0.74792 0
0.502295 0.52446 0
0.399195 0.477464 0
0 0.279915 0
0 0 0
0 0 0
1 0 0
1 0.831238 0
0 0.220359 0
0 0 0
0 0 0
1 0 0
1 0.300708 0
0 0.740186 0
0 0 0
0 0.839194 0
0.13643 1 0
0 1 0
0 0.839194 0
0 0.904689 0
0.0833046 1 0
0 1 0
0 0.904689 0
0 0 0
1 0 0
1 0.645947 0
0 0.230424 0
0 0 0
0 0 0
1 0 0
1 0.65718 0
0.255353 0.297235 0
0 0.168321 0
0 0 0
0 0 0
1 0 0
1 0.247565 0
0.735006 0.380948 0
0.560315 0.467228 0
0 0.721291 0
0 0 0
0 0.881918 0
0.0430031 1 0
0 1 0
0 0.881918 0
0 0 0
1 0 0
1 0.849958 0
0 0.21486 0
0 0 0
0 0.66041 0
0.17625 1 0
0 1 0
0 0.66041 0
0 0.234965 0
0.817648 1 0
0 1 0
0 0.234965 0
0 0 0
1 0 0
1 0.755174 0
0.363572 0.389097 0
0 0.173289 0
0 0 0
0 0 0
0.786169 0 0
0.38646 0.935125 0
0.357713 1 0
0 1 0
0 0 0
0 0 0
1 0 0
1 0.807683 0
0.447176 0.517468 0
0.396274 0.490306 0
0 0.262794 0
0 0 0
0 0 0
0.674557 0 0
0.324725 1 0
0 1 0
0 0 0
0 0.503059 0
0.0674658 0.588988 0
0.371899 1 0
0 1 0
0 0.503059 0
0 0.61054 0
0.114053 0.795937 0
0.231889 1 0
0 1 0
0 0.61054 0
0 0 0
1 0 0
1 0.973959 0
0.855239 0.900705 0
0 0.463606 0
0 0 0
0 0.205421 0
0.0278479 0.245616 0
0.107111 0.365966 0
0.507216 1 0
0 1 0
0 0.205421 0
0 0 0
1 0 0
1 0.454245 0
0.912103 0.499141 0
0.721598 0.591839 0
0 0.93748 0
0 0 0
0 0 0
0.0164464 0 0
0.531482 1 0
0 1 0
0 0 0
0 0 0
0.00832844 0 0
0.544516 1 0
0 1 0
0 0 0
0 0 0
0.0561521 0 0
0.809892 1 0
0 1 0
0 0 0
0 0 0
1 0 0
1 0.880973 0
0.785008 0.778254 0
0 0.363563 0
0 0 0
0 0.211023 0
0.217386 0.548284 0
0.491843 1 0
0 1 0
0 0.211023 0
0 0 0
1 0 0
1 0.938651 0
0 0.431058 0
0 0 0
0 0.0059385 0
0.563504 1 0
0 1 0
0 0.0059385 0
0 0 0
1 0 0
1 1 0
0 1 0
0 0 0
0 0 0
1 0 0
1 1 0
0 1 0
0 0 0
0 0 0
0.0306828 0 0
0.391099 0.481773 0
0.762353 1 0
0 1 0
0 0 0
0 0 0
1 0 0
1 0.957316 0
0 0.428285 0
0 0 0
0 0.597388 0
0.121906 0.785934 0
0.252039 1 0
0 1 0
0 0.597388 0
0 0 0
1 0 0
1 0.963431 0
0 0.275143 0
0 0 0
0 0.365982 0
0.139719 0.507053 0
0.304989 0.681505 0
0.59502 1 0
0 1 0
0 0.365982 0
0 0 0
1 0 0
1 1 0
0.971054 1 0
0 0.27237 0
0 0 0
0 0.43404 0
0.521873 1 0
0 1 0
0 0.43404 0
0 0 0
1 0 0
1 0.92634 0
0 0.389339 0
0 0 0
0 0.551629 0
0.14209 0.760227 0
0.295938 1 0
0 1 0
0 0.551629 0
0 0 0
1 0 0
1 0.98564 0
0 0.421525 0
0 0 0
0 0.58359 0
0.00656474 0.593513 0
0.130471 0.790591 0
0.253991 1 0
0 1 0
0 0.58359 0
0 0 0
1 0 0
1 0.24859 0
0.72425 0.380014 0
0.55556 0.458894 0
0 0.696503 0
0 0 0
0 0.525373 0
0.359313 1 0
0 1 0
0 0.525373 0
0 0 0
1 0 0
1 0.327739 0
0 0.823142 0
0 0 0
0 0.461704 0
0.0856063 0.556512 0
0.46419 1 0
0 1 0
0 0.461704 0
0 0 0
1 0 0
1 0.689788 0
0 0.213167 0
0 0 0
0 0.500691 0
0.0729069 0.579247 0
0.441851 1 0
0 1 0
0 0.500691 0
0 0.196158 0
0.228867 0.539812 0
0.51824 1 0
0 1 0
0 0.196158 0
0 0 0
1 0 0
1 0.636707 0
0.571881 0.416052 0
0 0.0931351 0
0 0 0
0 0.202269 0
0.234172 0.535898 0
0.542012 1 0
0 1 0
0 0.202269 0
0 0 0
1 0 0
1 0.684369 0
0.255064 0.289616 0
0 0.148877 0
0 0 0
0 0 0
0.0622901 0 0
0.587625 0.926867 0
0.627321 1 0
0 1 0
0 0 0
0 0 0
1 0 0
1 0.634734 0
0.566366 0.373424 0
0 0.0165273 0
0 0 0
0 0 0
1 0 0
1 1 0
0 1 0
0 0 0
0 0.156231 0
0.252506 0.522368 0
0.564053 1 0
0 1 0
0 0.156231 0
0 0 0
1 0 0
1 1 0
0 1 0
0 0 0
0 0 0
1 0 0
1 1 0
0 1 0
0 0 0
0 0 0
1 0 0
1 1 0
0 1 0
0 0 0
0.113196 0 0
1 0 0
1 0.325603 0
0.578374 0.525662 0
0.333176 0.25137 0
0.113196 0 0
0 0.190073 0
0.0369265 0.251594 0
0.235208 0.596147 0
0.45551 1 0
0 1 0
0 0.190073 0
0 0.0286362 0
0.596717 1 0
0 1 0
0 0.0286362 0
0 0 0
1 0 0
1 1 0
0 1 0
0 0 0
0 0 0
1 0 0
1 1 0
0 1 0
0 0 0
0 0 0
1 0 0
1 0.547039 0
0 0.0287632 0
0 0 0
0 0 0
1 0 0
1 1 0
0 1 0
0 0 0
0 0 0
1 0 0
1 1 0
0 1 0
0 0 0
0 0 0
1 0 0
1 1 0
0 1 0
0 0 0
0.234774 0 0
1 0 0
1 0.80065 0
0.43774 0.218378 0
0.234774 0 0
0 0 0
1 0 0
1 1 0
0 1 0
0 0 0
0 0 0
0.411951 0 0
0.923476 1 0
0 1 0
0 0 0
0 0 0
1 0 0
1 1 0
0 1 0
0 0 0
0 0 0
1 0 0
1 1 0
0 1 0
0 0 0
0 0 0
1 0 0
1 1 0
0 1 0
0 0 0
0 0 0
1 0 0
1 0.61548 0
0.744048 0.497544 0
0 0.140331 0
0 0 0
0 0 0
0.294788 0 0
0.871792 1 0
0 1 0
0 0 0
0 0 0
1 0 0
1 1 0
0 1 0
0 0 0
0 0 0
1 0 0
1 1 0
0 1 0
0 0 0
0 0 0
1 0 0
1 1 0
0 1 0
0 0 0
0.103217 0 0
1 0 0
1 0.638998 0
0.103217 0 0
0 0 0
1 0 0
1 1 0
0 1 0
0 0 0
0 0 0
1 0 0
1 1 0
0 1 0
0 0 0
0 0 0
1 0 0
1 1 0
0 1 0
0 0 0
0 0 0
1 0 0
1 1 0
0 1 0
0 0 0
0 0 0
1 0 0
1 1 0
0 1 0
0 0 0
0 0 0
1 0 0
1 1 0
0 1 0
0 0 0
0 0 0
1 0 0
1 0.628778 0
0.746926 0.50646 0
0 0.130962 0
0 0 0
0 0 0
1 0 0
1 1 0
0 1 0
0 0 0
0 0 0
1 0 0
1 1 0
0 1 0
0 0 0
0 0 0
1 0 0
1 1 0
0 1 0
0 0 0
0 0 0
1 0 0
1 1 0
0 1 0
0 0 0
0 0 0
1 0 0
1 1 0
0 1 0
0 0 0
0 0 0
1 0 0
1 1 0
0 1 0
0 0 0
0 0 0
1 0 0
1 1 0
0 1 0
0 0 0
0 0 0
1 0 0
1 1 0
0 1 0
0 0 0
0 0 0
1 0 0
1 0.825872 0
0.433881 0.515781 0
0.39536 0.494326 0
0 0.257928 0
0 0 0
0 0 0
1 0 0
1 1 0
0 1 0
0 0 0
0 0 0
1 0 0
1 1 0
0 1 0
0 0 0
0 0 0
1 0 0
1 1 0
0 1 0
0 0 0
0 0 0
0.587066 0 0
1 0.668444 0
1 1 0
0 1 0
0 0 0
0 0 0
1 0 0
1 1 0
0 1 0
0 0 0
0 0 0
1 0 0
[...]
CELL_DATA 4742
FIELD FieldData 3
weight 1 4742 float
 1.19667 1.17166 1.11569 1.15337 1.19076 1.08438 1.14083 1.09678 1.16564 1.14707 1.19684 1.07828 0.753249 1.08461 1.18445 1.13413 1.15335 0.878357 1.18459 1.19675 1.1658 1.18425 1.15941 0.815439 1.14706 1.17208 1.13448 1.12834 1.10936 0.847023 1.14673 0.859325 0.909127 0.853265 0.953003 0.859354 0.927912 0.884433 0.859271 0.98428 0.934457 0.959423 0.965436 0.872025 0.996631 0.878267 1.02187 0.915671 0.990718 0.890685 0.984285 0.996991 0.96584 0.959325 1.00314 0.972063 0.971951 1.02832 1.00937 1.00925 0.977884 1.00293 1.03418 0.853098 0.897107 0.915702 0.896845 0.865653 0.884339 0.903293 0.884562 0.909341 0.853313 0.946841 0.915861 0.871664 0.971993 0.940687 0.846897 1.02196 0.877938 0.940425 0.971849 0.946915 0.972074 0.909566 0.953365 0.99047 0.965495 0.965748 0.728299 0.940478 0.934149 0.946691 0.803108 0.92201 0.840537 0.972058 0.871826 0.978139 0.953255 0.847036 1.00333 0.884503 1.03454 0.878188 1.05291 0.815505 1.03431 1.05326 1.02192 0.853222 0.821974 1.02788 1.04059 1.01556 0.865544 1.05931 0.903157 0.953108 1.04688 0.965565 1.05325 0.959215 0.909596 0.890525 1.07181 0.990844 1.06543 0.997027 0.996835 1.02203 1.06545 0.959553 1.06572 1.00293 1.08449 1.08434 1.02827 1.0719 0.896829 1.06557 0.952909 1.07181 0.934604 1.07169 0.921855 1.07796 0.915487 1.00337 0.921956 1.00937 0.946803 1.0407 0.921901 0.977962 1.02824 0.984596 1.0404 1.02168 1.02825 1.12788 1.01574 1.15917 1.11546 1.14038 0.997086 0.978247 1.01577 1.04709 1.16559 1.01569 1.13459 1.12186 1.1407 1.00337 1.15317 1.03434 1.09055 1.03455 1.13453 1.03441 1.01577 1.097 1.1471 1.04712 1.02198 1.0904 1.05952 1.08423 1.05947 1.03446 1.09676 1.03456 1.12173 1.04075 1.10933 1.05937 1.11539 1.06564 1.05957 1.09061 1.05954 1.09083 1.09666 1.10939 1.05292 1.06544 1.08422 1.04683 1.04065 1.03436 1.04689 1.05956 1.00948 1.05931 1.07834 1.07815 1.09672 1.0845 1.03429 1.07823 1.06539 1.09705 1.0656 1.02831 1.10295 1.07185 1.10293 1.04696 1.04705 1.09051 1.0843 1.04703 1.13423 1.07209 1.10918 1.12794 1.12166 1.05321 1.12164 1.02798 1.10944 1.05302 1.09693 1.0906 1.03413 1.12198 1.06576 1.08446 1.10333 1.07164 1.05939 1.08444 1.1095 1.1031 1.10334 1.09039 1.06562 1.06568 1.09701 1.09061 1.1155 1.09066 1.07835 1.10916 1.07163 1.09704 1.05933 1.10958 1.10916 1.0783 1.06587 1.08452 1.09685 1.07176 1.07809 1.16541 0.859549 1.12827 1.06564 1.14071 1.15292 1.08416 1.14046 1.14705 1.14683 1.07823 1.12804 1.08433 1.15918 1.1032 0.902882 1.14045 1.12817 1.14063 1.09073 1.1345 0.90314 1.09055 1.13444 1.09065 1.11573 1.0971 1.12186 0.865399 1.12193 1.05309 1.12791 0.890494 1.13455 1.0094 1.10942 1.10305 1.10327 1.03444 1.11545 0.884185 1.15315 1.12799 1.02811 1.13421 1.14074 0.915548 1.12212 0.997065 1.14059 1.12832 1.11541 0.903197 1.04076 1.1219 1.12174 1.10922 1.05917 1.11579 1.12204 1.11563 1.04668 1.1219 1.07821 1.13428 0.921658 1.12819 1.05918 1.10919 1.10915 1.07835 0.909586 1.11553 1.04055 1.10303 1.05296 0.903274 1.10934 0.884257 1.06565 1.11551 1.11538 0.928295 1.10933 1.0033 0.890835 1.12185 0.971849 1.02192 1.09038 1.09062 1.11572 0.940854 1.10295 1.02795 1.10301 1.07822 0.959413 1.11587 1.04685 1.09689 1.06555 1.00952 1.0782 0.947077 1.09681 1.00937 0.953163 1.07188 1.06586 1.0842 1.01568 1.09062 0.934521 1.05942 1.08443 1.04704 1.07797 0.940831 0.890564 1.10915 1.10333 1.05915 1.0967 1.09682 0.940532 1.08439 0.903129 1.0907 1.09066 1.09668 1.03461 0.890599 1.09074 1.03416 1.07197 1.05306 1.09676 1.08424 1.07197 1.09086 0.896674 1.09067 0.977937 1.07194 1.07185 1.0783 1.05956 1.08421 1.05332 1.08428 0.896779 0.959551 1.06553 1.07797 1.05953 0.909518 1.07195 1.07806 1.08418 1.0596 1.06581 1.07182 1.07208 1.07209 0.921631 1.05308 1.07795 1.04055 1.02828 0.909434 1.05942 1.05914 1.05324 0.915813 1.07163 1.04698 1.02206 1.08447 0.915735 1.05335 1.07801 1.00926 0.92791 0.921715 0.903002 1.04081 1.01572 1.03458 1.06541 1.04676 1.00934 1.05317 1.06542 1.06571 0.940484 1.03428 1.02802 1.04062 1.05961 0.996693 1.10317 0.896688 1.07209 1.02837 0.927918 1.02794 1.00922 1.00299 1.03446 0.915476 1.06567 1.09685 1.04709 0.915583 1.07168 1.07197 1.05944 0.909332 1.06561 0.946983 1.05914 0.921933 1.07209 1.05328 0.915547 0.928098 1.05958 0.909501 1.02791 0.934301 1.0533 0.928341 1.04706 1.04676 0.859625 0.890492 1.07798 0.946916 1.05324 0.840788 1.03431 1.05335 0.953258 1.02207 0.959523 1.05334 1.03449 0.940613 1.04044 0.977883 1.01538 1.02821 0.871976 1.0406 0.972003 1.00316 1.0343 0.990454 0.903339 0.953267 0.971752 0.915603 0.978102 0.99047 0.965609 1.02196 0.946926 0.996958 1.01572 1.00959 1.01552 0.934363 0.971942 0.921716 0.977934 1.04679 0.990634 1.00962 0.953173 0.946706 0.97815 0.984354 0.978243 1.00295 0.984515 0.959319 0.96539 0.852893 0.971646 1.00297 0.984323 1.02827 1.01568 1.0467 0.865489 1.04041 1.02803 1.04692 1.04079 1.01546 1.04046 1.02791 1.02211 0.878068 1.0093 1.03415 0.996746 1.00334 0.903319 0.99681 0.965717 0.984197 0.940862 0.990727 1.00942 0.984447 0.990496 0.996922 0.97833 0.996771 0.965581 1.00326 0.890758 1.00326 1.02185 0.922013 1.02183 1.0092 0.953043 1.00298 1.02797 1.00955 1.07192 0.990516 1.08457 1.04073 1.07828 1.02196 1.06567 0.997065 1.05301 1.04067 0.98416 1.05916 1.05321 1.05337 0.971786 1.07179 1.06561 0.99083 1.05334 1.06556 1.02179 1.04046 1.04039 1.0346 0.91569 1.04688 1.04059 1.05915 0.934129 1.04693 1.01565 1.03424 1.02193 0.96577 1.04687 0.997049 1.02798 0.928273 1.02834 1.03448 0.909133 1.02171 1.02169 1.0529 0.946872 1.05947 1.02799 1.0468 1.06585 0.965741 1.04684 1.05305 1.02173 1.03449 0.959208 1.01551 1.04071 0.996856 1.0408 1.04063 1.0343 0.965813 1.02834 1.01558 1.03427 0.971878 1.04708 0.984157 0.959413 1.00324 1.01553 0.953079 1.02826 0.984251 1.02171 1.03448 0.997105 0.99057 0.971909 0.977935 0.959197 0.996981 0.934402 1.00926 1.01559 1.01566 0.997042 0.940618 1.01577 1.0157 0.978254 0.872025 1.02793 1.00922 1.02802 0.952929 1.00333 1.02203 1.0096 0.959159 0.996923 1.00918 1.02172 1.00297 1.01538 0.984416 0.978175 0.990563 0.990526 0.903078 1.02824 0.990768 0.878023 1.0095 0.996728 1.00325 1.02212 0.890645 0.972118 1.00335 0.896806 0.965746 0.909541 0.97833 0.965743 0.953258 0.971828 0.984457 0.928034 0.984194 0.896948 0.972114 0.978089 1.02207 0.884175 0.990459 1.09051 0.934404 1.09047 1.00915 1.09663 0.940601 0.990784 1.10318 1.11571 0.99665 0.990592 1.10934 1.11575 0.990821 1.00337 0.915527 1.07797 0.997121 1.09684 0.927998 1.10956 1.10932 0.996996 1.1158 0.959576 1.11543 1.00954 1.12167 0.934162 1.14675 1.12202 0.984247 1.12173 0.890571 1.1221 1.00914 1.12798 0.884385 1.11571 1.14053 1.13452 0.971772 0.952916 1.13415 0.922055 1.0905 1.02176 0.934244 1.08418 0.88431 1.08447 0.94072 0.965756 1.09696 0.953007 0.990541 0.940474 1.0968 1.10336 0.984322 0.915676 1.09695 0.947074 0.871924 0.959427 1.10302 1.0032 1.07835 0.971835 1.00317 0.865678 1.09054 0.965598 1.02171 1.08446 0.978001 0.972024 1.10313 1.01549 0.990751 1.09044 1.02173 1.00295 1.10326 0.878318 1.12824 1.02837 1.10933 0.965675 1.12795 1.00303 1.12196 0.959204 1.11562 0.890538 1.02192 1.10943 0.978126 0.871858 0.984352 1.10307 1.11552 1.10941 1.11543 1.10916 0.996707 0.896972 1.12205 1.11586 1.12835 1.09702 1.12171 1.09043 1.14051 1.09692 1.08425 1.02807 1.09674 1.13428 1.1029 1.14691 1.15295 1.09062 1.00962 1.15293 1.10318 1.15301 1.14042 1.13459 1.10328 1.1471 1.10336 1.15318 1.09664 1.14702 1.09695 1.14072 1.09669 1.15957 0.878368 1.15927 1.08449 1.15916 1.1595 0.996785 1.07792 1.16556 1.08434 0.871636 1.09076 1.15962 1.07821 1.07187 1.15317 0.984405 0.896841 1.05333 1.14071 1.06577 1.07194 1.14697 1.06568 0.878109 1.06547 1.00927 1.04087 1.05957 1.16587 0.909549 1.15913 1.14049 0.971947 1.13434 1.14667 1.03433 1.13424 0.965494 0.903123 1.14073 1.02808 1.13413 1.03439 1.12799 0.88445 1.12813 1.12209 1.14057 1.00935 1.12806 0.921689 1.13434 0.978055 1.14711 1.15297 1.03434 1.15313 0.984276 0.928079 1.15334 1.15944 1.03413 1.0406 1.16545 1.07791 1.15324 1.05933 0.872051 1.04691 1.1346 1.09058 1.05915 1.03449 1.06553 1.13415 0.890874 1.14682 1.15324 1.05913 1.15302 1.14683 1.04077 0.87818 1.04686 1.08435 0.902928 1.02818 1.028 1.02209 1.07808 0.884138 1.05949 1.01561 0.996858 0.896837 1.04042 1.01559 0.928293 1.09068 1.04699 1.04697 0.947033 1.02208 1.08442 1.04704 0.921784 1.07796 1.04667 1.03454 1.09039 1.08439 0.915539 1.06581 1.07807 1.02212 0.915786 1.07825 1.05326 1.06582 1.02826 0.934189 1.07199 1.0717 1.05932 1.07163 1.00333 1.05301 0.934443 1.05333 1.05298 1.04682 1.02205 0.940527 1.0593 1.06542 1.09058 1.05934 0.940453 1.01585 1.05333 0.959402 1.07164 0.984279 1.04664 0.946809 1.08415 1.05306 1.04706 0.990473 1.10918 1.05322 1.00303 0.984536 1.09674 1.04068 0.990732 0.990472 1.04667 1.11586 0.971647 1.00307 1.03432 1.10337 0.953268 1.00947 1.08427 0.965792 1.05936 1.10949 0.996766 0.978291 1.06562 1.0969 1.04062 0.984324 1.05921 1.08439 1.02821 1.04672 0.953261 1.10332 1.00932 1.02791 0.965838 1.03439 0.971956 0.978334 1.05933 1.07796 0.996757 1.03458 0.997095 1.10943 1.05302 1.00952 1.10946 0.971753 1.03461 1.01573 0.977943 1.09078 0.996833 0.990755 1.07199 1.01567 1.04074 1.02184 1.02816 0.99057 1.01566 1.01578 0.959596 1.04709 1.04038 1.03433 0.89064 1.02207 0.884398 0.990598 1.02211 1.02809 0.890852 0.971925 0.90945 1.03432 0.990819 1.02803 0.872058 0.977897 0.897078 1.02792 1.00303 0.959508 1.04058 0.896899 1.02195 1.01576 0.921653 1.0221 0.984487 0.934562 0.978299 1.02799 0.940632 0.978138 1.02163 1.01559 0.95931 0.946886 0.959522 0.965721 0.99072 0.947003 1.03416 0.953298 0.94692 0.965453 1.00924 0.903218 0.959272 1.05926 1.00311 1.05303 0.928219 0.940412 1.04682 0.984425 0.928323 0.902904 1.09067 0.971715 0.915704 0.909304 1.07826 0.940638 0.934318 1.06567 0.871772 0.921916 0.927894 1.05313 0.953183 0.959477 0.902912 1.03428 0.971765 0.946968 0.909567 0.940479 0.978282 1.02822 0.952994 0.959135 1.00934 0.984429 0.934586 0.984465 0.940479 1.04075 0.88413 0.959503 1.03452 0.971846 0.96584 0.878333 1.12207 0.978124 1.12807 1.11585 0.971903 1.02826 1.14083 0.997 1.12203 0.971762 0.997044 1.11564 1.00959 1.00309 0.965672 1.10322 1.1221 0.996965 0.984289 0.984221 1.10924 0.990638 1.022 1.00323 0.990843 1.10303 0.953157 1.0029 1.1279 0.978274 0.978111 1.02831 1.11558 0.965439 1.15315 1.12825 0.940777 1.14706 1.15914 1.04682 1.14067 1.13428 0.934496 0.890483 1.11573 1.02794 0.909143 1.10943 1.03413 0.959354 0.915811 1.12165 1.14044 1.04053 1.10933 0.978342 0.952979 1.04691 0.884424 1.09676 0.952886 0.921767 1.01583 0.959593 1.09706 0.990794 0.965852 1.10306 0.877903 1.02801 0.953118 1.0219 0.822012 1.09079 0.98414 1.07189 0.953196 1.04701 1.00336 0.815661 0.946769 1.04075 1.04038 1.04667 0.965529 1.05915 1.05301 0.971976 1.10947 0.828292 1.0654 1.07187 1.11566 1.04666 1.11554 1.12806 1.06586 1.07795 1.10306 1.10922 1.14061 1.12177 1.12817 1.14695 1.10952 1.12801 1.10928 1.13457 0.753103 1.09052 1.1155 1.10303 1.13438 1.08434 1.12208 1.11561 1.10294 1.12195 1.10298 1.11578 0.715582 1.1217 1.11584 1.10942 1.07821 1.10296 1.14056 1.14086 1.14697 1.08435 1.13457 0.728006 1.13419 1.14691 1.16567 1.0779 1.14691 0.709506 1.15315 1.09677 1.15952 1.12832 1.13456 1.15337 1.07188 1.12184 1.13454 1.11569 0.853349 1.12827 1.10944 1.12164 1.122 0.897082 1.12812 1.14067 1.10961 1.10957 0.909563 1.09671 1.07837 1.08423 1.09692 0.92167 1.07812 1.08413 1.09055 0.896861 0.815537 1.09707 1.10311 0.903197 1.09055 1.09705 1.09663 0.890423 1.07189 0.803304 1.07822 1.07813 1.06571 1.06565 0.915642 1.05946 0.790628 1.0845 1.07207 1.06546 1.0655 0.928173 0.746681 1.07816 0.940574 1.05962 1.11574 0.934333 1.10952 0.715834 1.10295 1.09709 1.09053 1.10309 1.09054 0.915869 1.09705 1.12208 0.928223 1.09693 1.0406 1.10304 0.909342 1.10319 1.07819 1.08419 0.902969 1.07174 1.08448 0.996861 1.0843 1.09057 1.09054 0.896657 1.00929 1.07811 1.07809 1.07796 1.07183 1.00925 1.1655 1.12207 1.17163 0.865588 0.984301 1.15323 1.14686 1.12183 1.15294 1.02201 1.19045 1.1719 0.959543 1.14077 1.147 1.14663 0.853069 1.13413 1.15938 0.896848 1.12788 0.909355 1.14078 1.13444 1.14058 1.11549 1.13445 0.89039 1.12171 1.14064 0.953166 1.12837 1.15931 1.09676 1.17185 0.921734 1.15316 1.14087 1.1968 0.972034 0.93432 1.19705 1.19692 1.10337 0.909618 1.19708 1.12807 0.940679 1.13459 1.16573 1.1342 0.91551 1.10929 0.909399 1.17791 1.19702 1.00922 1.09086 0.903024 1.19708 1.15932 1.07195 0.946693 0.990428 1.10936 0.953137 1.10956 0.978015 1.11573 0.94681 1.11551 1.00318 1.11546 0.922004 1.10955 1.11545 0.95293 1.1219 1.11543 0.95298 1.09702 1.0844 1.0907 0.95945 1.09696 1.09053 0.965391 1.08434 0.965705 1.07817 1.10314 0.928214 1.12825 0.959498 1.07818 1.09697 0.903108 1.08455 0.978039 1.05914 0.92201 1.07797 0.9281 1.09042 1.14663 0.928355 0.921831 0.934564 1.10929 0.84044 1.06587 0.934332 0.94074 1.12821 0.915499 0.934477 1.08445 0.909431 0.928153 0.953209 1.10302 0.897042 1.0783 0.921643 0.946712 1.06585 0.928142 0.890784 0.934183 1.08438 0.965446 1.09085 1.10944 0.953208 1.09693 1.1221 0.946754 0.859232 1.0905 0.915745 1.103 1.04664 0.978213 1.04041 0.796928 0.909609 0.971824 1.07212 1.04046 0.846728 1.0592 0.902945 0.971696 1.04082 1.10301 0.940441 0.840485 1.02198 1.05304 1.04085 1.04054 0.978147 0.946717 0.834241 1.01581 0.93423 1.03456 0.959536 1.01539 1.05309 0.953158 1.05325 1.05337 1.04682 1.05916 0.959558 1.04084 0.753348 1.0344 0.947062 1.01574 0.928144 1.03444 0.915604 1.0031 0.965449 0.946851 1.0095 1.02807 0.940855 0.990438 1.02827 1.03416 0.928188 0.828337 1.04673 0.984263 1.02814 0.940721 0.903159 1.00312 0.87821 1.00303 0.996673 1.02163 1.06542 0.996765 1.05932 0.821668 1.07175 0.896825 1.07164 1.0031 1.05962 1.0467 1.03455 1.00324 1.05953 1.07205 1.0094 1.07175 1.06578 1.05919 1.03419 1.0407 1.05295 1.01558 1.04677 0.959242 1.02833 1.04665 1.04078 1.0468 0.953246 1.05305 1.05917 1.05315 1.02805 1.03438 0.971809 1.03445 1.02809 1.02212 0.984322 0.896751 1.04055 0.990453 0.990765 0.890474 1.0033 0.902978 0.990865 1.00918 0.990396 1.00288 0.915609 1.03452 0.977965 0.996695 0.896839 0.971991 0.909388 1.01555 0.978029 1.00312 1.0405 0.990752 1.04671 1.01577 1.01545 1.02184 1.02789 0.984378 1.00933 1.00327 1.02202 1.00923 1.00922 0.990715 1.02799 0.997103 1.01557 0.997084 1.00295 1.02169 0.984168 1.02795 0.996725 1.03423 1.03455 0.990431 0.965816 1.05305 1.00331 0.959507 1.02793 0.965551 1.04059 1.0221 0.971934 1.02168 0.959415 1.04695 1.0154 0.984473 1.06573 1.00924 0.984361 1.05337 1.02194 1.00925 1.05917 0.978144 0.965811 1.03451 0.98446 0.996876 0.87835 1.0221 0.953148 0.996692 0.978161 0.965765 1.02811 0.759577 1.01556 1.01573 1.04045 0.88439 1.00937 0.984554 0.940833 1.00308 0.971928 0.903169 1.01582 1.00304 1.00305 1.02201 1.02172 0.927951 1.02788 0.965434 1.02173 0.996958 1.00957 1.01574 0.872083 1.01547 1.00925 0.853033 1.0092 1.01574 0.840795 0.990813 0.997095 1.01586 0.915409 0.990445 1.00333 0.98415 0.990771 0.909297 0.990499 0.98433 0.959323 0.978344 1.0093 1.00925 1.0094 0.946668 0.971969 0.96539 0.959501 0.984589 0.940784 0.99066 1.00302 1.06559 0.978287 1.06576 0.953341 1.07166 1.05942 0.990389 1.0656 0.971844 1.04677 1.05914 0.93449 1.10322 0.978321 0.952876 1.0657 0.940687 0.997091 1.06582 1.04684 0.984262 1.07167 0.965554 1.04699 0.996906 0.946756 1.0529 0.977911 1.04697 0.977988 1.03444 1.02812 0.990536 1.03449 1.04051 1.05292 0.965436 1.05925 1.0217 1.04703 0.934282 1.04664 1.05336 1.04086 1.00316 1.01566 1.0782 1.07817 0.990828 1.04701 0.915591 1.03424 1.05933 1.08428 0.940707 1.04049 0.89698 0.990389 1.05289 1.00946 1.05335 0.965779 0.89671 1.03448 1.08415 0.984621 1.0595 0.928107 1.01562 0.971974 0.971928 1.00315 0.978215 1.03413 1.0283 1.07202 0.997109 1.05334 1.0532 0.884577 0.915689 1.00938 1.02165 1.0346 0.834414 1.04077 1.02798 0.959469 0.996703 1.01549 1.00313 1.0407 0.928116 0.996706 1.00293 0.971892 0.990418 0.922027 1.01561 0.996769 0.921759 0.990739 0.928238 1.0092 0.990384 1.01586 0.997041 0.971648 1.00307 0.978071 1.00914 0.984506 0.959517 1.01558 1.00922 0.952953 1.02202 1.02809 1.04068 0.946675 0.921676 1.02788 0.978203 0.971718 0.98458 1.01574 1.04678 1.02811 0.984348 0.984513 0.997112 1.00959 0.959151 1.00303 0.984243 0.977977 0.965861 0.984601 0.990538 0.98433 1.02175 0.996705 1.0406 0.953245 0.978003 0.971633 1.06556 0.934573 0.990554 0.934166 0.978354 0.946922 1.00306 0.997017 0.903333 0.996645 0.953253 0.946719 0.984486 0.971664 0.959476 0.934232 0.978308 0.97169 0.996646 0.859187 0.921956 1.00311 0.928226 1.00943 0.959603 0.878219 0.997106 0.934306 1.01584 0.972051 1.04071 0.965511 0.971808 0.934574 0.928048 1.00954 0.978118 0.959526 1.00329 0.996728 1.02182 0.877935 0.890393 1.00919 0.965671 1.01564 0.965851 0.871761 1.01569 0.990456 1.03416 0.896914 0.940848 0.884264 1.05913 0.934156 1.06555 0.940694 0.871853 1.07836 0.928249 0.890422 1.07173 0.865841 0.909299 1.07788 0.884495 0.921731 1.05325 0.953341 0.965849 1.04067 0.903058 0.959149 0.965541 1.02805 1.00312 0.921941 0.972048 1.05943 0.927961 0.946634 0.996989 1.04696 0.965558 0.94706 0.977896 0.97175 0.909263 1.06558 0.959413 0.927995 0.921762 0.953102 0.922087 0.946667 1.02788 0.928339 0.947096 0.902963 0.996994 0.947098 0.884463 0.922028 1.00916 0.953101 0.897083 0.859572 0.846827 1.02201 0.86553 0.865578 0.971842 1.04058 0.872027 1.02809 0.934459 0.86566 0.896801 0.990742 0.996814 0.89087 1.003 0.934213 0.996857 1.0157 0.871893 1.00955 0.902977 0.903007 1.03437 1.01587 0.909349 0.859274 1.04079 0.990676 0.872017 0.98432 1.04044 0.878217 0.965627 1.05301 0.871999 0.927918 1.03441 0.984294 1.05327 0.978246 1.05954 0.984602 0.921825 1.07804 0.915722 1.06574 0.959315 0.934601 1.04687 0.909292 0.940873 0.922072 0.940849 1.0467 0.902942 0.934613 1.04676 0.90927 0.947123 1.07188 1.09083 0.89085 0.91575 0.903001 1.05929 0.934516 0.996827 0.909522 1.01566 0.903318 0.871788 1.00958 0.915715 0.897015 0.959528 0.865565 0.859609 1.00957 0.972014 0.940781 0.909581 0.928209 0.903178 1.02163 0.896752 0.953131 0.921935 1.04061 0.896655 0.97183 0.846662 1.04076 0.921693 0.934458 1.04067 0.940684 0.884157 0.890381 0.890504 1.00917 0.878089 0.9158 0.940794 0.871739 1.03427 0.853178 0.909326 0.884338 1.02195 0.87833 0.915425 0.878104 0.840708 1.05327 0.877934 0.865566 0.871695 1.05302 0.859289 0.884263 1.01586 1.01555 1.02798 1.00328 1.0344 1.04672 1.02169 0.853226 1.05327 1.04076 1.06566 1.0531 1.05336 1.05935 1.04677 1.02163 0.834279 1.07183 1.00953 1.07804 0.990477 1.08456 1.05943 0.853021 0.990809 1.07202 0.865466 1.04671 0.828287 1.00943 1.05938 0.934524 1.06544 1.00292 0.896831 1.01583 0.965638 1.06563 0.953038 0.953245 0.997034 1.00336 1.07828 0.934558 0.95939 1.07212 0.959215 0.978085 1.04674 0.965441 0.984468 1.08415 0.915407 1.05956 0.959447 0.946882 0.890399 1.04081 1.0844 0.896651 0.965504 1.07191 0.940741 0.946894 1.0906 0.965434 0.990862 0.940516 1.0906 1.06552 1.07788 0.903124 0.928154 1.08432 0.997102 0.909369 1.05925 1.07837 0.953178 0.978007 0.897063 1.04053 0.953278 1.0969 0.903223 0.971871 1.09069 0.959526 0.878041 1.01561 1.09056 0.928155 0.859221 1.10301 0.915779 0.903252 0.978111 1.10315 0.978209 1.00308 0.934231 1.11544 0.996889 0.959197 0.909521 0.990577 1.05918 0.971871 1.02832 1.07182 0.921928 0.953346 1.05943 0.903261 0.990501 1.00932 1.0656 0.890467 0.990642 0.978038 0.88445 1.07209 0.984528 0.959167 0.996968 1.09061 0.897093 0.959299 0.972088 1.07822 0.884405 0.947101 0.915423 1.10308 0.902954 0.915645 1.09694 0.978057 0.927877 0.928302 1.10312 0.890418 0.96578 0.928262 0.940846 1.08454 0.971717 0.896685 1.08437 0.934402 0.946719 0.921664 0.915764 1.0967 0.947007 0.996739 0.921785 1.09086 0.965514 0.953113 0.934591 0.965759 1.10293 0.990607 0.934612 0.98421 1.09084 0.92196 0.947101 1.10296 0.996962 0.95962 0.940465 1.09709 1.0094 0.971965 0.946984 1.10932 0.978049 0.953016 0.928272 1.1094 0.928351 0.934172 1.11568 0.940405 0.940598 1.10919 0.971986 0.921674 0.89682 1.11543 1.12174 0.946954 0.902992 0.909518 1.09708 0.984515 0.878285 0.965682 1.11545 0.934189 0.921868 0.915381 1.10913 0.90299 1.13423 1.12804 0.877877 0.921643 0.890843 1.11566 1.12212 0.902918 1.12201 0.896649 1.14071 1.12789 1.13427 0.909268 1.10948 0.93449 1.12193 0.