# vtk DataFile Version 3.0
vtk output
ASCII
DATASET UNSTRUCTURED_GRID
POINTS 44490 float
0.00521557 0 0
0.0201522 0 0
0.0175297 0.0117881 0
0.0119225 0.012961 0
0.00521557 0 0
0 0 0
0.00521557 0 0
0.0119225 0.012961 0
0.011715 0.0131926 0
0 0.015686 0
0 0 0
0.0238566 0.0166332 0
0.0229435 0.0141003 0
0.029912 0.00781209 0
0.0375352 0.0116104 0
0.0377987 0.0131278 0
0.0335196 0.0220356 0
0.0321374 0.0225343 0
0.0238566 0.0166332 0
0.0175297 0.0117881 0
0.0201522 0 0
0.0292014 0 0
0.029912 0.00781209 0
0.0229435 0.0141003 0
0.0175297 0.0117881 0
0.490869 0.838523 0
0.496347 0.839229 0
0.50072 0.84695 0
0.49362 0.856703 0
0.483118 0.848293 0
0.490869 0.838523 0
0.00690605 0.0268425 0
0.0110641 0.0235047 0
0.01874 0.0255773 0
0.0213617 0.0308568 0
0.0161529 0.0373199 0
0.0105176 0.0355939 0
0.00690605 0.0268425 0
0.0110641 0.0235047 0
0.011715 0.0131926 0
0.0119225 0.012961 0
0.0175297 0.0117881 0
0.0229435 0.0141003 0
0.0238566 0.0166332 0
0.01874 0.0255773 0
0.0110641 0.0235047 0
0.466025 0.870426 0
0.462893 0.863594 0
0.469898 0.855354 0
0.475677 0.855785 0
0.479394 0.863234 0
0.473069 0.872322 0
0.466025 0.870426 0
0 0.0257056 0
0.00690605 0.0268425 0
0.0105176 0.0355939 0
0.00195661 0.0433775 0
0 0.0435375 0
0 0.0257056 0
0.770531 0.332265 0
0.773522 0.329597 0
0.783196 0.331239 0
0.784962 0.338122 0
0.781324 0.342809 0
0.772531 0.342248 0
0.770531 0.332265 0
0.257633 0.440604 0
0.258362 0.429928 0
0.26463 0.427468 0
0.267981 0.428917 0
0.270667 0.438018 0
0.263727 0.444313 0
0.257633 0.440604 0
0 0.015686 0
0.011715 0.0131926 0
0.0110641 0.0235047 0
0.00690605 0.0268425 0
0 0.0257056 0
0 0.015686 0
0.01874 0.0255773 0
0.0238566 0.0166332 0
0.0321374 0.0225343 0
0.028886 0.0318376 0
0.0213617 0.0308568 0
0.01874 0.0255773 0
0.488099 0.864647 0
0.493729 0.857607 0
0.503855 0.863285 0
0.504633 0.868502 0
0.499044 0.874517 0
0.490314 0.871879 0
0.488099 0.864647 0
0.267981 0.428917 0
0.276848 0.424602 0
0.282202 0.427636 0
0.283263 0.434036 0
0.277055 0.439254 0
0.270667 0.438018 0
0.267981 0.428917 0
0.744767 0.339039 0
0.75065 0.335544 0
0.757922 0.338886 0
0.759473 0.344629 0
0.757437 0.34766 0
0.749782 0.349113 0
0.744253 0.34504 0
0.744767 0.339039 0
0.0377987 0.0131278 0
0.0375352 0.0116104 0
0.0440115 0.0041769 0
0.0532241 0.0117877 0
0.0500062 0.0194716 0
0.0377987 0.0131278 0
0.481718 0.848478 0
0.483118 0.848293 0
0.49362 0.856703 0
0.493729 0.857607 0
0.488099 0.864647 0
0.479394 0.863234 0
0.475677 0.855785 0
0.481718 0.848478 0
0.297409 0.410557 0
0.302246 0.413455 0
0.30306 0.422053 0
0.296859 0.426015 0
0.289838 0.422186 0
0.289046 0.415023 0
0.297409 0.410557 0
0.759473 0.344629 0
0.769947 0.345091 0
0.772064 0.355336 0
0.769644 0.357595 0
0.761452 0.357405 0
0.757437 0.34766 0
0.759473 0.344629 0
0.0292014 0 0
0.0440664 0 0
0.0440115 0.0041769 0
0.0375352 0.0116104 0
0.029912 0.00781209 0
0.0292014 0 0
0.0570324 0.0103083 0
0.059432 0 0
0.0676086 0 0
0.0679299 0.0131815 0
0.0636312 0.0146606 0
0.0570324 0.0103083 0
0.302246 0.413455 0
0.311221 0.409015 0
0.313983 0.410417 0
0.31685 0.419342 0
0.308686 0.424411 0
0.30306 0.422053 0
0.302246 0.413455 0
0.769947 0.345091 0
0.772531 0.342248 0
0.781324 0.342809 0
0.784018 0.350666 0
0.779731 0.35591 0
0.772064 0.355336 0
0.769947 0.345091 0
0.0440115 0.0041769 0
0.0440664 0 0
0.059432 0 0
0.0570324 0.0103083 0
0.0532241 0.0117877 0
0.0440115 0.0041769 0
0.263098 0.86706 0
0.268611 0.875578 0
0.266554 0.879928 0
0.255257 0.882371 0
0.251455 0.871711 0
0.25329 0.868409 0
0.263098 0.86706 0
0.308686 0.424411 0
0.31685 0.419342 0
0.320962 0.421021 0
0.322652 0.430319 0
0.313363 0.435583 0
0.310654 0.434568 0
0.308686 0.424411 0
0.764735 0.331607 0
0.770531 0.332265 0
0.772531 0.342248 0
0.769947 0.345091 0
0.759473 0.344629 0
0.757922 0.338886 0
0.764735 0.331607 0
0.0308299 0.0351251 0
0.028886 0.0318376 0
0.0321374 0.0225343 0
0.0335196 0.0220356 0
0.0416443 0.0271626 0
0.0415404 0.0347954 0
0.0407522 0.035822 0
0.0308299 0.0351251 0
0.278489 0.86301 0
0.28467 0.86095 0
0.292951 0.86744 0
0.291 0.874389 0
0.281842 0.877492 0
0.276937 0.873594 0
0.278489 0.86301 0
0.0416443 0.0271626 0
0.0503009 0.0210687 0
0.053814 0.0237544 0
0.052891 0.0343226 0
0.0415404 0.0347954 0
0.0416443 0.0271626 0
0.282202 0.427636 0
0.289838 0.422186 0
0.296859 0.426015 0
0.296762 0.43315 0
0.290508 0.437208 0
0.283263 0.434036 0
0.282202 0.427636 0
0.772955 0.320772 0
0.780262 0.316009 0
0.782457 0.31673 0
0.786617 0.326979 0
0.783196 0.331239 0
0.773522 0.329597 0
0.772955 0.320772 0
0.0335196 0.0220356 0
0.0377987 0.0131278 0
0.0500062 0.0194716 0
0.0503009 0.0210687 0
0.0416443 0.0271626 0
0.0335196 0.0220356 0
0.258297 0.894694 0
0.254154 0.884469 0
0.255257 0.882371 0
0.266554 0.879928 0
0.271141 0.888871 0
0.265029 0.896343 0
0.258297 0.894694 0
0.291151 0.44457 0
0.290508 0.437208 0
0.296762 0.43315 0
0.304525 0.437472 0
0.303205 0.446629 0
0.298393 0.44874 0
0.291151 0.44457 0
0.798032 0.320681 0
0.803651 0.319857 0
0.809137 0.326967 0
0.804387 0.334514 0
0.798563 0.334311 0
0.79411 0.326614 0
0.798032 0.320681 0
0.0571829 0.0394141 0
0.052891 0.0343226 0
0.053814 0.0237544 0
0.0611626 0.0230183 0
0.0642059 0.0262001 0
0.0598848 0.0382484 0
0.0571829 0.0394141 0
0.296859 0.426015 0
0.30306 0.422053 0
0.308686 0.424411 0
0.310654 0.434568 0
0.304525 0.437472 0
0.296762 0.43315 0
0.296859 0.426015 0
0.268611 0.875578 0
0.276937 0.873594 0
0.281842 0.877492 0
0.281247 0.887482 0
0.279059 0.889405 0
0.271141 0.888871 0
0.266554 0.879928 0
0.268611 0.875578 0
0.0503009 0.0210687 0
0.0500062 0.0194716 0
0.0532241 0.0117877 0
0.0570324 0.0103083 0
0.0636312 0.0146606 0
0.0611626 0.0230183 0
0.053814 0.0237544 0
0.0503009 0.0210687 0
0.786617 0.326979 0
0.79411 0.326614 0
0.798563 0.334311 0
0.793964 0.339913 0
0.784962 0.338122 0
0.783196 0.331239 0
0.786617 0.326979 0
0.324644 0.383701 0
0.331188 0.389151 0
0.331448 0.393864 0
0.323465 0.398926 0
0.317389 0.395064 0
0.316623 0.387773 0
0.324644 0.383701 0
0.292951 0.86744 0
0.299637 0.864514 0
0.307334 0.872596 0
0.301194 0.883051 0
0.298933 0.883085 0
0.291 0.874389 0
0.292951 0.86744 0
0.0105176 0.0355939 0
0.0161529 0.0373199 0
0.0187538 0.0438063 0
0.0107486 0.0490881 0
0.00195661 0.0433775 0
0.0105176 0.0355939 0
0.784018 0.350666 0
0.781324 0.342809 0
0.784962 0.338122 0
0.793964 0.339913 0
0.79631 0.347478 0
0.792378 0.351714 0
0.784018 0.350666 0
0 0.0435375 0
0.00195661 0.0433775 0
0.0107486 0.0490881 0
0.0102734 0.0573047 0
0 0.0586566 0
0 0.0435375 0
0.331188 0.389151 0
0.339807 0.38296 0
0.347061 0.389697 0
0.346308 0.393487 0
0.337678 0.398414 0
0.331448 0.393864 0
0.331188 0.389151 0
0.281842 0.877492 0
0.291 0.874389 0
0.298933 0.883085 0
0.29257 0.889787 0
0.281247 0.887482 0
0.281842 0.877492 0
0.798563 0.334311 0
0.804387 0.334514 0
0.808952 0.340757 0
0.803544 0.348466 0
0.79631 0.347478 0
0.793964 0.339913 0
0.798563 0.334311 0
0.0161529 0.0373199 0
0.0213617 0.0308568 0
0.028886 0.0318376 0
0.0308299 0.0351251 0
0.0290104 0.0403663 0
0.019082 0.0439501 0
0.0187538 0.0438063 0
0.0161529 0.0373199 0
0.307334 0.872596 0
0.313606 0.871695 0
0.317656 0.875385 0
0.316909 0.885562 0
0.305825 0.887276 0
0.301194 0.883051 0
0.307334 0.872596 0
0.325394 0.377682 0
0.332384 0.373833 0
0.339884 0.378792 0
0.339807 0.38296 0
0.331188 0.389151 0
0.324644 0.383701 0
0.325394 0.377682 0
0.019082 0.0439501 0
0.0290104 0.0403663 0
0.0337367 0.0482169 0
0.0261442 0.055929 0
0.0239839 0.0548143 0
0.019082 0.0439501 0
0.757437 0.34766 0
0.761452 0.357405 0
0.756225 0.363654 0
0.74747 0.359643 0
0.749782 0.349113 0
0.757437 0.34766 0
0.279059 0.889405 0
0.281247 0.887482 0
0.29257 0.889787 0
0.29462 0.89941 0
0.289435 0.903556 0
0.280543 0.90088 0
0.279059 0.889405 0
0.323465 0.398926 0
0.331448 0.393864 0
0.337678 0.398414 0
0.337803 0.405729 0
0.328205 0.40865 0
0.323934 0.405385 0
0.323465 0.398926 0
0.0102734 0.0573047 0
0.0107486 0.0490881 0
0.0187538 0.0438063 0
0.019082 0.0439501 0
0.0239839 0.0548143 0
0.012157 0.0590355 0
0.0102734 0.0573047 0
0.761452 0.357405 0
0.769644 0.357595 0
0.771292 0.368745 0
0.767383 0.371603 0
0.756654 0.3661 0
0.756225 0.363654 0
0.761452 0.357405 0
0.298933 0.883085 0
0.301194 0.883051 0
0.305825 0.887276 0
0.305462 0.899626 0
0.303586 0.901337 0
0.29462 0.89941 0
0.29257 0.889787 0
0.298933 0.883085 0
0 0.0586566 0
0.0102734 0.0573047 0
0.012157 0.0590355 0
0.0134591 0.0660371 0
0.0107037 0.0690984 0
0 0.0673864 0
0 0.0586566 0
0.308985 0.400297 0
0.317389 0.395064 0
0.323465 0.398926 0
0.323934 0.405385 0
0.313983 0.410417 0
0.311221 0.409015 0
0.308985 0.400297 0
0.012157 0.0590355 0
0.0239839 0.0548143 0
0.0261442 0.055929 0
0.0272368 0.0588292 0
0.0217963 0.0680234 0
0.0134591 0.0660371 0
0.012157 0.0590355 0
0.316909 0.885562 0
0.320482 0.889044 0
0.318005 0.900348 0
0.305462 0.899626 0
0.305825 0.887276 0
0.316909 0.885562 0
0.772064 0.355336 0
0.779731 0.35591 0
0.78358 0.36375 0
0.777961 0.370033 0
0.771292 0.368745 0
0.769644 0.357595 0
0.772064 0.355336 0
0.0238758 0.0717954 0
0.0217963 0.0680234 0
0.0272368 0.0588292 0
0.0344272 0.062456 0
0.0359435 0.0694358 0
0.0333489 0.0722348 0
0.0238758 0.0717954 0
0.250199 0.902442 0
0.258297 0.894694 0
0.265029 0.896343 0
0.267679 0.903046 0
0.259399 0.912354 0
0.250355 0.904953 0
0.250199 0.902442 0
0.337678 0.398414 0
0.346308 0.393487 0
0.35292 0.400842 0
0.350768 0.406805 0
0.339597 0.407281 0
0.337803 0.405729 0
0.337678 0.398414 0
0.0413187 0.0562944 0
0.0373717 0.0485928 0
0.0423218 0.0427521 0
0.0498318 0.0455709 0
0.0504331 0.0539261 0
0.04475 0.0571298 0
0.0413187 0.0562944 0
0.274836 0.905268 0
0.280543 0.90088 0
0.289435 0.903556 0
0.290147 0.912974 0
0.28461 0.917546 0
0.277088 0.914905 0
0.274836 0.905268 0
0.0407522 0.035822 0
0.0415404 0.0347954 0
0.052891 0.0343226 0
0.0571829 0.0394141 0
0.0569481 0.040032 0
0.0498318 0.0455709 0
0.0423218 0.0427521 0
0.0407522 0.035822 0
0.35292 0.400842 0
0.346308 0.393487 0
0.347061 0.389697 0
0.353687 0.385818 0
0.360521 0.389063 0
0.360637 0.398414 0
0.35292 0.400842 0
[...]
CELL_DATA 6400
FIELD FieldData 3
weight 1 6400 float
 0.0586618 0.0585686 0.0588951 0.0587631 0.0478347 0.0587712 0.0587618 0.0476132 0.0586606 0.0564752 0.0548507 0.0586311 0.0588648 0.0475887 0.0549379 0.0564214 0.0590459 0.0477002 0.0551956 0.0562445 0.0589031 0.0591737 0.0552319 0.0562559 0.0590651 0.0467734 0.0550717 0.0564638 0.0589966 0.0469472 0.0591252 0.0550007 0.0566968 0.0590393 0.0466305 0.0548301 0.0565798 0.0592181 0.0550161 0.0467476 0.0591573 0.0565031 0.0556582 0.0469593 0.0587517 0.056294 0.0586839 0.0556807 0.0468072 0.0563198 0.0588747 0.0469263 0.0558277 0.0589311 0.0561942 0.0466442 0.055492 0.0588261 0.0560192 0.0467212 0.0586795 0.0554708 0.0588464 0.0467823 0.056014 0.0589316 0.0464328 0.0555045 0.0591079 0.0464585 0.0591388 0.0556302 0.046565 0.0590104 0.0559956 0.0558255 0.059295 0.0463663 0.055823 0.0558591 0.0592191 0.0462012 0.0557807 0.0558186 0.0590649 0.0462509 0.0590049 0.0560743 0.0556285 0.0465191 0.0591557 0.0560797 0.0466021 0.0554241 0.0592702 0.0559023 0.0463312 0.059252 0.0554742 0.0556096 0.0464452 0.0594363 0.0553087 0.0594166 0.055838 0.0469734 0.0551158 0.0593322 0.059267 0.0558308 0.0471334 0.0553198 0.0593838 0.055643 0.055306 0.0467989 0.0593561 0.0564199 0.0549116 0.0469538 0.0565092 0.0593077 0.0471492 0.05493 0.0564788 0.0595278 0.0471522 0.05511 0.0594496 0.0552025 0.0471517 0.0561549 0.0595829 0.0552898 0.0469877 0.0562323 0.0594859 0.0595671 0.0560325 0.0469771 0.0551196 0.0596476 0.0469717 0.0562584 0.059664 0.0549873 0.0465952 0.0595109 0.0563574 0.055073 0.0466218 0.0595997 0.0563246 0.0549235 0.0467812 0.0596704 0.0561263 0.0464057 0.0593713 0.0546228 0.0563792 0.0594536 0.0464321 0.0545573 0.0560564 0.0595332 0.0464261 0.0547138 0.0561049 0.0467941 0.059341 0.0547933 0.0559042 0.0594269 0.0467847 0.0543152 0.056018 0.0595205 0.0465214 0.0543728 0.0596075 0.0558133 0.0466302 0.0543214 0.0596027 0.0558047 0.0466433 0.0545208 0.0597496 0.0555749 0.0546481 0.0596704 0.0459955 0.0555995 0.0548108 0.0597478 0.0458598 0.0558357 0.0546171 0.0595395 0.0460589 0.0556066 0.0544606 0.0596344 0.0456111 0.0544001 0.055595 0.0597269 0.0458395 0.05459 0.0558305 0.0596779 0.0460732 0.0541085 0.0587071 0.0556067 0.0460887 0.0586453 0.0541736 0.0462418 0.0553675 0.0587846 0.0540845 0.0588964 0.0458683 0.0553705 0.0585876 0.0538901 0.0459919 0.0586747 0.0574787 0.0453834 0.053967 0.0587558 0.0456383 0.0588084 0.0574072 0.0537931 0.0456029 0.0590129 0.0542426 0.0572479 0.0450506 0.059103 0.0450781 0.0540493 0.0592163 0.0572299 0.0453847 0.0542025 0.0589292 0.0569824 0.0456961 0.0590107 0.0538326 0.0457899 0.0590772 0.0453933 0.0568748 0.045129 0.0592069 0.0451627 0.0591444 0.0585159 0.0452245 0.0454841 0.0586003 0.0462241 0.0586607 0.0462144 0.0587555 0.0458099 0.0583169 0.0460133 0.058494 0.0538841 0.0584186 0.0460219 0.0569691 0.0585602 0.0461974 0.0463456 0.0586542 0.0540035 0.057132 0.0588524 0.0462686 0.0547466 0.0570361 0.0589232 0.0459458 0.0548263 0.0589617 0.0461164 0.057123 0.0546934 0.0590908 0.0460361 0.0569326 0.0543733 0.0588179 0.0455568 0.054523 0.0590149 0.056781 0.0455431 0.0544944 0.0457788 0.058864 0.0568244 0.0452682 0.0548021 0.0593722 0.0453291 0.0565779 0.0546404 0.0458473 0.0592739 0.0547401 0.0566064 0.0456104 0.0594551 0.0546032 0.0594119 0.0457708 0.0567366 0.0544324 0.0453321 0.0568463 0.0592096 0.0545373 0.0454362 0.0565988 0.0593156 0.0543971 0.0455852 0.0594147 0.0541779 0.0562819 0.0593136 0.0472316 0.0543287 0.0564148 0.0595966 0.0472669 0.0542827 0.0595063 0.0562393 0.0470757 0.0539856 0.059682 0.0564172 0.0470666 0.0564687 0.0596969 0.0539086 0.0473478 0.0595101 0.0566836 0.0473844 0.0540827 0.0596046 0.0471809 0.0562842 0.054115 0.0595367 0.0471647 0.0542171 0.0596399 0.0563843 0.0541802 0.0468167 0.0591305 0.0561012 0.0592358 0.0543388 0.0469077 0.0562077 0.0593416 0.0468181 0.0540116 0.0567607 0.0590984 0.0466089 0.0539778 0.0466709 0.0565773 0.0589565 0.0469744 0.0556651 0.0592228 0.0469745 0.0567518 0.0591144 0.047062 0.0556725 0.0593319 0.0565171 0.0467988 0.0594352 0.0554879 0.0467938 0.0566783 0.0594437 0.0554806 0.0474237 0.0563174 0.0595447 0.0475202 0.0593283 0.0557208 0.0567405 0.0472861 0.0592119 0.0556762 0.056522 0.0473311 0.0565236 0.0556596 0.0593625 0.0471822 0.0565127 0.0553263 0.0594457 0.0474164 0.0563064 0.0554945 0.0593169 0.0563064 0.0475312 0.0554394 0.059721 0.0560795 0.0597186 0.0562938 0.0474278 0.0555201 0.0598015 0.0472388 0.05979 0.0564222 0.0553101 0.0598073 0.0560667 0.0472599 0.0553073 0.059744 0.0562289 0.0598675 0.0552903 0.047353 0.0558149 0.0598767 0.0551126 0.0470193 0.059932 0.0560715 0.0471433 0.0551014 0.0599088 0.059852 0.0560101 0.0468868 0.054904 0.0599922 0.0558662 0.0467511 0.0548906 0.0599711 0.0551496 0.0600032 0.0560682 0.0468934 0.0599456 0.0550984 0.0558469 0.0470541 0.0600656 0.0560736 0.0552553 0.0471267 0.0600106 0.0558228 0.0549196 0.0598137 0.0469874 0.055815 0.0598169 0.0549826 0.0469331 0.0556027 0.0598677 0.046811 0.0549516 0.0555877 0.0599147 0.0468205 0.0561635 0.055545 0.0597919 0.046447 0.0598632 0.0559734 0.0557387 0.0598399 0.0464571 0.056085 0.0599039 0.0556459 0.0462594 0.0599826 0.0557552 0.0463952 0.059939 0.0462499 0.0600474 0.0466002 0.0599605 0.0465844 0.0599577 0.0466974 0.0600195 0.0463819 0.0600256 0.046159 0.0600691 0.0555187 0.0600347 0.0463635 0.0559017 0.0600482 0.0457827 0.0601087 0.0460225 0.0554494 0.0601601 0.0557112 0.0458664 0.0600949 0.046027 0.0553131 0.0601241 0.0559262 0.045578 0.060124 0.0553273 0.045489 0.0558861 0.0600698 0.0455679 0.0601825 0.0556992 0.0557224 0.0601772 0.0461417 0.0555774 0.0556944 0.0602189 0.046123 0.0554941 0.0601515 0.0456228 0.055715 0.0557789 0.0602109 0.0458634 0.0555477 0.0456549 0.0553545 0.0602807 0.0459068 0.0553158 0.0555685 0.0602287 0.046513 0.0602239 0.055505 0.0555244 0.046599 0.0602763 0.0553518 0.0464016 0.0555692 0.0602799 0.0462953 0.0601032 0.0551097 0.0553429 0.0601209 0.0464511 0.0552468 0.0601722 0.0553122 0.0466982 0.060162 0.0551112 0.060127 0.0552889 0.0465788 0.0550639 0.0600788 0.0550597 0.054904 0.0466608 0.0601841 0.0548997 0.0551017 0.0463156 0.060219 0.0551186 0.055291 0.0602712 0.0464188 0.0551563 0.0551032 0.0461626 0.0603137 0.054918 0.0459295 0.0551424 0.0602674 0.0602191 0.0459817 0.0549966 0.0549948 0.0602344 0.0462096 0.0557039 0.0549402 0.0456741 0.0602828 0.0556349 0.0547152 0.045685 0.0554987 0.0597594 0.0547855 0.0457129 0.0554284 0.0598003 0.0546667 0.0459853 0.0552695 0.0598929 0.0461305 0.0545107 0.0598407 0.0552111 0.0456583 0.0544623 0.0556084 0.0596479 0.0456732 0.0547332 0.0553421 0.0459038 0.0597232 0.0547773 0.0553873 0.0597801 0.0553502 0.0544077 0.0597593 0.0551045 0.054574 0.0539138 0.059945 0.0551269 0.0599207 0.0545567 0.0549331 0.0538272 0.0600292 0.054558 0.054943 0.0599911 0.0543762 0.0537116 0.0552047 0.0598627 0.059884 0.0541509 0.0549806 0.0535309 0.0599738 0.0543186 0.0548219 0.0599133 0.0542859 0.0536236 0.0595594 0.054639 0.0541278 0.0538287 0.0596943 0.0547134 0.053736 0.0595995 0.0539515 0.0550238 0.0596839 0.0539026 0.0548848 0.0540972 0.0594802 0.0547998 0.0536065 0.0594825 0.0539448 0.0547192 0.0535073 0.0542269 0.0595814 0.0545407 0.0596889 0.0541637 0.054668 0.053499 0.0597793 0.0544399 0.0540218 0.0536937 0.059831 0.0545048 0.0597534 0.0532929 0.0539504 0.0555091 0.0595797 0.053263 0.0547376 0.0557452 0.0596712 0.0547059 0.0534162 0.0596483 0.0556372 0.054709 0.0600801 0.0555275 0.0530513 0.0545528 0.0601031 0.0552569 0.0601342 0.0545107 0.0531715 0.0600329 0.0553601 0.0547377 0.059971 0.0530385 0.0553841 0.0600323 0.0547905 0.0533575 0.0601867 0.0545937 0.0555985 0.0532525 0.0601394 0.0545198 0.0554181 0.0602242 0.0531324 0.0543786 0.0553671 0.0530309 0.0602674 0.05446 0.0552237 0.0602051 0.0537938 0.0543609 0.0551935 0.0600735 0.0541936 0.0539011 0.0551124 0.0600824 0.0543518 0.0601319 0.0550051 0.0537173 0.0540079 0.0601692 0.0535939 0.0551337 0.0598725 0.0541518 0.053505 0.0551196 0.0599278 0.0538254 0.0541306 0.0599109 0.0548957 0.0599999 0.0543169 0.0539022 0.0548845 0.0598268 0.0541845 0.0547974 0.059707 0.0537865 0.0542323 0.0550038 0.0597891 0.0536991 0.053953 0.0548671 0.0598338 0.0536065 0.0546468 0.0597758 0.0540067 0.0534805 0.0547652 0.0600412 0.0607571 0.05994 0.0535554 0.0546178 0.0607881 0.0599776 0.0533763 0.060794 0.0553421 0.0532837 0.0607699 0.0600182 0.0607529 0.0553655 0.0533854 0.059865 0.0608139 0.0550987 0.053127 0.0608287 0.0599234 0.0549372 0.0529962 0.0608035 0.0551456 0.0598089 0.060822 0.0530004 0.0607408 0.0583942 0.0551262 0.053191 0.0607309 0.0582515 0.0551485 0.0607652 0.0532311 0.0582047 0.060802 0.055373 0.0533313 0.0607948 0.0584498 0.0608116 0.0580658 0.0551167 0.0530456 0.0607846 0.0581053 0.0549025 0.0531217 0.0607906 0.0583259 0.0549092 0.0582241 0.0529157 0.0608211 0.0585339 0.0546968 0.060812 0.0527621 0.0608068 0.0587015 0.0549109 0.0608197 0.0528035 0.0586233 0.0549518 0.0607912 0.0524936 0.0548166 0.0587866 0.0607553 0.0584426 0.0526455 0.0546861 0.060743 0.0607884 0.0584922 0.0525132 0.0546676 0.060812 0.0585305 0.0607947 0.0545917 0.0526765 0.0607918 0.0586971 0.0608054 0.052924 0.054408 0.0577457 0.0607737 0.0527853 0.0546672 0.0579625 0.0607277 0.0579148 0.0607679 0.0546803 0.0524116 0.0580849 0.0544274 0.0607204 0.052525 0.0577874 0.0607496 0.0575617 0.0542137 0.0521985 0.0607561 0.0579168 0.0607162 0.0544576 0.0523512 0.0606977 0.0582947 0.0544433 0.0607155 0.0581064 0.0607737 0.0519033 0.0541848 0.0584383 0.0607782 0.0519195 0.0607599 0.0582993 0.0547306 0.060763 0.0521037 0.0579161 0.0606665 0.054687 0.0606938 0.0581101 0.0518555 0.060645 0.0545653 0.0582384 0.0522392 0.0606751 0.0542986 0.0580368 0.052102 0.0606216 0.0544983 0.0607432 0.0588712 0.0522237 0.0607323 0.0543742 0.0607116 0.0590009 0.0520048 0.0543816 0.0606824 0.0589743 0.0519412 0.0607738 0.0545103 0.0607432 0.0586795 0.0529041 0.0544274 0.0607576 0.0527347 0.0588386 0.0607244 0.0543713 0.0589103 0.0607515 0.0528106 0.0541874 0.0587859 0.0607063 0.052622 0.0542662 0.0607024 0.0590828 0.0524609 0.054141 0.0607295 0.0540901 0.0525838 0.0591925 0.060679 0.0541439 0.0527924 0.0607024 0.0591669 0.054129 0.0607125 0.0528525 0.058878 0.0606795 0.0539202 0.0606935 0.0525681 0.0590381 0.0606406 0.052387 0.0538802 0.0590988 0.0606567 0.0523867 0.0607026 0.0538823 0.0589887 0.0526137 0.0606405 0.0521983 0.0586232 0.0536675 0.0606961 0.0523452 0.0584254 0.0606386 0.0523181 0.0536965 0.05874 0.0605017 0.0585914 0.0540312 0.0518657 0.0583454 0.0539497 0.06058 0.0519643 0.0581933 0.0539106 0.0605786 0.0520883 0.0583151 0.0604838 0.0538059 0.0518798 0.0585235 0.0606297 0.0523283 0.0586827 0.0537159 0.0606953 0.0520971 0.0587507 0.0606091 0.0535551 0.0521525 0.0589309 0.0606749 0.0544162 0.0518376 0.0588154 0.0604754 0.0542142 0.0605669 0.0586143 0.0518745 0.054208 0.0604661 0.0585035 0.0605476 0.0539919 0.0538676 0.0584842 0.0603973 0.0540081 0.0537398 0.0586122 0.0603004 0.0542029 0.057358 0.0538157 0.0603993 0.0539876 0.0576083 0.0602621 0.0535309 0.0539914 0.0576814 0.0602143 0.0577529 0.0536401 0.0539725 0.0571799 0.0535969 0.0537776 0.0600702 0.0572483 0.0537496 0.0574627 0.0601512 0.0538735 0.0537703 0.0574619 0.0601398 0.0536952 0.053734 0.0577901 0.0603848 0.0536475 0.053815 0.0578643 0.0603679 0.0535949 0.0579618 0.0534403 0.0603686 0.0536556 0.0602712 0.0576116 0.0534655 0.0601601 0.0575296 0.0532134 0.0534328 0.0602647 0.0577075 0.060587 0.053423 0.053437 0.0569848 0.0606597 0.0533215 0.0570903 0.0605695 0.0533743 0.0533783 0.0570547 0.0606448 0.0535519 0.0529641 0.0572908 0.0606235 0.0535391 0.0568004 0.0604384 0.0530848 0.0535112 0.0605331 0.0568315 0.0531664 0.060423 0.0533206 0.0565858 0.0605141 0.0529356 0.053274 0.0605279 0.0567779 0.0532118 0.0606064 0.0572592 0.053234 0.0550881 0.0605924 0.0575896 0.0529909 0.0548921 0.0605339 0.0574257 0.05283 0.0604732 0.054831 0.0573421 0.0529912 0.060422 0.0548356 0.0571345 0.0604634 0.0537611 0.0546617 0.056871 0.0603761 0.0602803 0.0546494 0.0570277 0.0537682 0.0602886 0.0546024 0.0570175 0.0536057 0.060334 0.0548788 0.0581558 0.0533494 0.0600661 0.0580145 0.0547562 0.0535407 0.0601638 0.0581596 0.0543397 0.0601915 0.0535562 0.0578718 0.0544523 0.0600601 0.0533704 0.0577426 0.0542261 0.0601604 0.0536724 0.0579182 0.054484 0.0602999 0.0603578 0.0582637 0.0544018 0.0536542 0.0602852 0.0583481 0.0545718 0.0602084 0.0534455 0.0583971 0.0543938 0.0600907 0.0578546 0.0534338 0.0601917 0.0581048 0.0541028 0.0532349 0.0580313 0.0600751 0.0543216 0.0532938 0.0581782 0.0606116 0.0531177 0.0541546 0.0605941 0.0580783 0.0531386 0.0605435 0.0541405 0.0606471 0.0530545 0.0575023 0.0541984 0.0606459 0.052868 0.0576747 0.0606163 0.054062 0.057566 0.0606115 0.0529168 0.0539527 0.0605665 0.0605011 0.0572173 0.0538989 0.0532098 0.0604957 0.0538425 0.0573972 0.0604597 0.0605288 0.0530501 0.0545899 0.0572845 0.0605796 0.054412 0.052993 0.0605708 0.0577157 0.0544031 0.0605283 0.0578396 0.0527462 0.0605401 0.05431 0.0529706 0.0579146 0.0606714 0.0541437 0.0606453 0.0527909 0.0542558 0.0575917 0.0606112 0.0542839 0.0606343 0.0527162 0.0574167 0.0540984 0.0606304 0.0526903 0.0576694 0.0541625 0.0605872 0.0526771 0.0540489 0.0574524 0.0606126 0.0539076 0.052822 0.0605744 0.0592451 0.0538928 0.0605738 0.0525432 0.0606058 0.0540443 0.0593615 0.0523096 0.0605821 0.0539011 0.0594586 0.0605352 0.0524245 0.0605607 0.0536658 0.0593101 0.0527569 0.0605347 0.0535118 0.0591982 0.0527325 0.0605371 0.053719 0.0591476 0.0525505 0.0605 0.0539106 0.0525237 0.0604971 0.0538458 0.0604169 0.0522698 0.053701 0.0604581 0.0595323 0.0522666 0.0603769 0.0534643 0.0594209 0.0604121 0.0536519 0.0524527 0.0604893 0.059539 0.0536837 0.0521034 0.060487 0.0534936 0.0593952 0.0521756 0.0604488 0.0539129 0.0592101 0.0520531 0.0604485 0.0592926 0.0603303 0.0538954 0.0518572 0.0603542 0.0594322 0.0537186 0.0518976 0.060299 0.0593005 0.053711 0.0602816 0.0517788 0.0590074 0.0604026 0.053502 0.0604031 0.0519731 0.0591266 0.0534912 0.0603592 0.0521319 0.0589591 0.0603467 0.0536772 0.0588358 0.0517016 0.0603082 0.0536785 0.0604906 0.058734 0.0518241 0.053609 0.0604775 0.058828 0.0534052 0.0526552 0.0605091 0.0591452 0.0604554 0.053298 0.0590117 0.0526406 0.0604573 0.0534766 0.059103 0.0521646 0.0604559 0.0592427 0.0532056 0.0524036 0.0604187 0.0589716 0.0520879 0.0603686 0.0532955 0.0588799 0.0604072 0.0523651 0.058783 0.0534953 0.0604112 0.0525876 0.0532753 0.0589222 0.060437 0.0524684 0.0532719 0.0595757 0.060328 0.0523621 0.0603711 0.0531005 0.0596383 0.0603796 0.0524858 0.0596942 0.0603293 0.053041 0.0522317 0.060333 0.0593672 0.0530421 0.0521024 0.0595101 0.0603811 0.0594014 0.0603363 0.0522276 0.0529229 0.0605404 0.059444 0.0530656 0.0519656 0.0595454 0.0605352 0.0529636 0.0518999 0.0604736 0.0518207 0.0596515 0.0527978 0.06051 0.0596041 0.0516362 0.0528321 0.0604586 0.0597418 0.0603857 0.0515051 0.0527224 0.06043 0.0597273 0.0534243 0.0516537 0.0603945 0.0534773 0.0519607 0.0594959 0.0604609 0.0532281 0.0518128 0.0604569 0.0594786 0.0530887 0.0604118 0.0596072 0.051939 0.0532572 0.0603762 0.0591206 0.060318 0.0532938 0.0516967 0.0592199 0.0602798 0.0533004 0.0514405 0.0591611 0.0603839 0.0532665 0.0603298 0.0515365 0.0592946 0.0530676 0.0602851 0.0589329 0.0530865 0.0515328 0.060252 0.053095 0.0590493 0.0601732 0.0528985 0.0516991 0.0589786 0.0600735 0.0530433 0.0515783 0.059206 0.0601851 0.0528864 0.0593539 0.051235 0.0600444 0.0529016 0.0593236 0.0602074 0.0512839 0.0528161 0.0593486 0.0602408 0.0514017 0.060176 0.0526476 0.0592188 0.052875 0.0600797 0.0517532 0.0590347 0.0526941 0.0599837 0.0590703 0.0516428 0.0527064 0.0601303 0.0517007 0.0524783 0.0590641 0.0599598 0.0513796 0.052694 0.0600519 0.0585418 0.0512052 0.0524876 0.0604118 0.0587026 0.0525264 0.0513914 0.0603599 0.0586275 0.0520902 0.0603391 0.0514704 0.0585023 0.0602895 0.0522875 0.0509267 0.0581973 0.0602937 0.0522504 0.0511035 0.0584093 0.0602617 0.0522603 0.0509662 0.060319 0.0583171 0.0518844 0.0582759 0.0602889 0.0506199 0.0520543 0.0585923 0.0602769 0.0507829 0.0520179 0.0602128 0.058727 0.0602506 0.0506704 0.0524676 0.0585944 0.0602091 0.0510708 0.0524036 0.0583808 0.0601654 0.0509532 0.0522329 0.0582784 0.0507873 0.0601268 0.0521575 0.0583759 0.060192 0.0507061 0.0584795 0.0523396 0.060131 0.051568 0.0601754 0.0579469 0.0516635 0.0516521 0.0600946 0.0518443 0.0579018 0.0600943 0.0514071 0.0517403 0.0581454 0.0600276 0.0512878 0.0514742 0.0580496 0.0599767 0.0511229 0.051519 0.0578021 0.0600048 0.0514455 0.0515268 0.0601099 0.0519702 0.0516436 0.0575546 0.0599778 0.05209 0.05768 0.0515932 0.0600788 0.0518889 0.058045 0.0511977 0.0598949 0.0517606 0.0581477 0.051093 0.0599909 0.0516397 0.058066 0.0599056 0.0512917 0.0517951 0.057835 0.050859 0.0526006 0.0511172 0.0599401 0.0578694 0.0509816 0.0525169 0.0598645 0.0579336 0.050563 0.0526818 0.0599925 0.0588394 0.0508065 0.0586995 0.0522628 0.0600171 0.0506619 0.0588452 0.0523772 0.0596961 0.0508934 0.0587876 0.0524473 0.059832 0.0510401 0.0585031 0.0597033 0.0508098 0.0528549 0.0584072 0.0599151 0.0506145 0.058619 0.0529407 0.0600605 0.0584705 0.0505345 0.0528739 0.0599151 0.0588871 0.050735 0.05265 0.0600467 0.0587593 0.0503127 0.0597367 0.0526065 0.0589198 0.0504992 0.0596072 0.0527374 0.0586623 0.0503902 0.059767 0.0520264 0.0585723 0.0596241 0.0521109 0.050042 0.0587341 0.059495 0.0521619 0.0501947 0.0585708 0.0594291 0.0500804 0.0582008 0.0518 0.0595657 0.0582841 0.0502135 0.0518926 0.0591849 0.0582636 0.0504823 0.0518875 0.0593578 0.0579674 0.0504588 0.0524065 0.0591573 0.0580534 0.0502054 0.0595706 0.052302 0.0594277 0.0499529 0.0579219 0.052473 0.0594343 0.0499189 0.0583662 0.0521519 0.0499627 0.0592481 0.0584476 0.0522192 0.0583756 0.0592724 0.0497046 0.0519597 0.0582352 0.0590912 0.0498945 0.0581437 0.0592868 0.0520138 0.049765 0.0512895 0.0590902 0.0579833 0.0512857 0.0581724 0.0494052 0.0599259 0.0510585 0.0496236 0.0597726 0.0580113 0.0510986 0.0597717 0.0494871 0.0603205 0.0511137 0.0599342 0.0602544 0.0493729 0.0515276 0.0603023 0.0598728 0.0496296 0.0513409 0.060365 0.0596242 0.0603437 0.0497053 0.0515749 0.0597221 0.0603672 0.0511299 0.0493494 0.0595902 0.0603557 0.0513576 0.0598647 0.0494446 0.0603227 0.0513316 0.0603889 0.0503868 0.0600096 0.0511462 0.0603777 0.0502408 0.0604142 0.0599505 0.0508251 0.0504496 0.0604251 0.0508292 0.0599735 0.0604408 0.0500604 0.0505878 0.0597167 0.060476 0.0508825 0.0498764 0.0604311 0.0596823 0.05036 0.0604634 0.050151 0.0503686 0.0598367 0.060501 0.050412 0.050625 0.0594291 0.060492 0.0502752 0.0594699 0.0503968 0.0603619 0.0594423 0.0502276 0.0506093 0.049913 0.0603247 0.0507084 0.0590927 0.0604001 0.050055 0.0509205 0.0592645 0.0604227 0.049865 0.0509464 0.0592519 0.0603111 0.0497692 0.050475 0.0595733 0.0603408 0.0495795 0.0595428 0.0603747 0.0507108 0.0495173 0.0594078 0.0603486 0.0514028 0.0604661 0.0592566 0.0492979 0.0516106 0.0604405 0.0593742 0.0493838 0.0604996 0.0516613 0.0592371 0.0604324 0.0496353 0.0511742 0.0603857 0.0590269 0.0495019 0.0514449 0.0588185 0.0604637 0.0496937 0.0511674 0.0589626 0.0604346 0.0494259 0.0512297 0.0604727 0.0589513 0.0514995 0.0604781 0.0492321 0.0517088 0.0604703 0.0586675 0.0605278 0.0516309 0.0517518 0.0585975 0.0605166 0.0514917 0.0605291 0.058761 0.0517564 0.06053 0.0515843 0.0512622 0.0605756 0.0585576 0.0511905 0.0605638 0.0515012 0.0589038 0.0605757 0.0513925 0.0509198 0.0605602 0.0587585 0.0508871 0.0606104 0.0513046 0.0588898 0.050982 0.0605933 0.0513977 0.0587211 0.0606169 0.0506177 0.0513736 0.0606016 0.0585397 0.0506644 0.0515668 0.0606402 0.0585009 0.0507714 0.051289 0.0606492 0.051016 0.0509865 0.060532 0.0582108 0.0605464 0.0511057 0.0512595 0.0605782 0.0584247 0.05108 0.0605606 0.0507329 0.0582373 0.060495 0.0509234 0.0584078 0.0507791 0.0605096 0.0509995 0.0509937 0.0605409 0.0579832 0.0507163 0.0605543 0.0581892 0.0530461 0.0605974 0.0506325 0.0606304 0.0504239 0.0580348 0.0606016 0.0528492 0.0508154 0.0606307 0.0529995 0.0579662 0.0506866 0.060663 0.0605706 0.0583677 0.0507654 0.0525716 0.0605529 0.0583168 0.0505283 0.0526592 0.0583187 0.0605771 0.0503732 0.0581593 0.0527472 0.0504603 0.0606316 0.0605956 0.053057 0.0