# vtk DataFile Version 3.0
vtk output
ASCII
DATASET UNSTRUCTURED_GRID
POINTS 35230 float
0 0 0
1 0 0
1 1 0
0 1 0
0 0 0
0.338603 0.0597541 0
0.242635 0 0
1 0 0
1 0.443914 0
0.6558 0.248369 0
0.338603 0.0597541 0
0 0 0
1 0 0
1 1 0
0 1 0
0 0 0
0 0 0
1 0 0
1 1 0
0 1 0
0 0 0
0 0 0
1 0 0
1 1 0
0 1 0
0 0 0
0.331217 0 0
1 0 0
1 0.448398 0
0.838117 0.348233 0
0.331217 0 0
0 0 0
1 0 0
1 1 0
0 1 0
0 0 0
0 0 0
1 0 0
1 1 0
0 1 0
0 0 0
0 0 0
1 0 0
1 1 0
0 1 0
0 0 0
0.339331 0.0539091 0
0.257018 0 0
1 0 0
1 0.458382 0
0.656623 0.252597 0
0.339331 0.0539091 0
0 0 0
1 0 0
1 1 0
0 1 0
0 0 0
0 0 0
1 0 0
1 1 0
0 1 0
0 0 0
0 0 0
0.832713 0 0
0.368899 0.582266 0
0.360389 0.592605 0
0.0133665 1 0
0 1 0
0 0 0
0.305261 0 0
1 0 0
1 0.626257 0
0.823963 0.472265 0
0.305261 0 0
0 0 0
0.927808 0 0
0.755066 0.208029 0
0.31322 0.709355 0
0.0507118 1 0
0 1 0
0 0 0
0 0 0
1 0 0
1 0.486422 0
0.811843 0.419275 0
0.592676 0.334897 0
0 0.0971938 0
0 0 0
0 0 0
0.919493 0 0
0.469354 0.509386 0
0.0198824 1 0
0 1 0
0 0 0
0 0 0
1 0 0
1 0.500133 0
0.803119 0.424085 0
0.593332 0.336865 0
0 0.0806151 0
0 0 0
0 0 0
0.846937 0 0
0.363659 0.581779 0
0.354853 0.592043 0
0 0.991866 0
0 0 0
0 0 0
0.0067163 0 0
0 0.00714521 0
0 0 0
0.320759 0 0
1 0 0
1 0.636115 0
0.819803 0.472319 0
0.320759 0 0
0 0 0
0.947674 0 0
0.719637 0.251513 0
0.419778 0.577278 0
0.324369 0.6781 0
0.0115439 1 0
0 1 0
0 0 0
0.284143 0 0
1 0 0
1 0.620235 0
0.490759 0.189343 0
0.284143 0 0
0 0 0
1 0 0
1 1 0
0 1 0
0 0 0
0 0 0
1 0 0
1 1 0
0 1 0
0 0 0
0 0 0
0.00375418 0 0
0 0.00406075 0
0 0 0
0.331641 0 0
1 0 0
1 0.656987 0
0.806713 0.472489 0
0.331641 0 0
0 0 0
0.937724 0 0
0.579565 0.435124 0
0.0777585 1 0
0 1 0
0 0 0
0 0 0
1 0 0
1 1 0
0 1 0
0 0 0
0 0 0
1 0 0
1 1 0
0 1 0
0 0 0
0 0 0
1 0 0
1 1 0
0 1 0
0 0 0
0.141993 0 0
1 0 0
1 0.479073 0
0.742414 0.339593 0
0.150337 0.00491345 0
0.141993 0 0
0 0 0
1 0 0
1 1 0
0 1 0
0 0 0
0.118754 0 0
1 0 0
1 0.464351 0
0.741896 0.332866 0
0.152714 0.0188923 0
0.118754 0 0
0 0 0
1 0 0
1 1 0
0 1 0
0 0 0
0 0 0
1 0 0
1 1 0
0 1 0
0 0 0
0 0 0
1 0 0
1 1 0
0 1 0
0 0 0
0 0 0
1 0 0
1 1 0
0 1 0
0 0 0
0.00329306 0 0
1 0 0
1 0.496164 0
0.555356 0.28195 0
0.00329306 0 0
0 0 0
1 0 0
1 1 0
0 1 0
0 0 0
0 0 0
1 0 0
1 1 0
0 1 0
0 0 0
0 0 0
1 0 0
1 1 0
0 1 0
0 0 0
0.341093 0.039774 0
0.283549 0 0
1 0 0
1 0.466419 0
0.990621 0.460661 0
0.655738 0.248052 0
0.341093 0.039774 0
0 0 0
1 0 0
1 1 0
0 1 0
0 0 0
0 0 0
1 0 0
1 1 0
0 1 0
0 0 0
0 0 0
1 0 0
1 1 0
0 1 0
0 0 0
0 0 0
1 0 0
1 1 0
0 1 0
0 0 0
0 0 0
1 0 0
1 1 0
0 1 0
0 0 0
0 0 0
1 0 0
1 1 0
0 1 0
0 0 0
0.391646 0 0
1 0 0
1 0.691513 0
0.840002 0.5159 0
0.57568 0.215996 0
0.391646 0 0
0 0 0
1 0 0
1 1 0
0 1 0
0 0 0
0 0 0
0.0179211 0 0
0 0.0208589 0
0 0 0
0 0 0
1 0 0
1 1 0
0 1 0
0 0 0
0 0 0
1 0 0
1 1 0
0 1 0
0 0 0
0 0 0
1 0 0
1 1 0
0 1 0
0 0 0
0.0319809 0 0
1 0 0
1 0.508551 0
0.555308 0.282042 0
0.0319809 0 0
0 0 0
1 0 0
1 1 0
0 1 0
0 0 0
0 0 0
1 0 0
1 1 0
0 1 0
0 0 0
0 0 0
1 0 0
1 1 0
0 1 0
0 0 0
0 0 0
0.0149154 0 0
0 0.0143468 0
0 0 0
0 0 0
1 0 0
1 1 0
0 1 0
0 0 0
0 0 0
1 0 0
1 1 0
0 1 0
0 0 0
0.230817 0 0
1 0 0
1 0.480957 0
0.869361 0.403162 0
0.576375 0.22116 0
0.230817 0 0
0 0 0
0.0326843 0 0
0 0.0354242 0
0 0 0
0 0 0
1 0 0
1 1 0
0 1 0
0 0 0
0 0 0
0.0464857 0 0
0 0.0542184 0
0 0 0
0 0 0
1 0 0
1 1 0
0 1 0
0 0 0
0.484716 0 0
1 0 0
1 0.451696 0
0.789338 0.27442 0
0.484716 0 0
0 0 0
1 0 0
1 1 0
0 1 0
0 0 0
0 0 0
1 0 0
1 1 0
0 1 0
0 0 0
0 0 0
0.0737083 0 0
0.0570669 0.0216748 0
0 0.0923083 0
0 0 0
0 0 0
1 0 0
1 1 0
0 1 0
0 0 0
0.543073 0 0
1 0 0
1 0.468327 0
0.844631 0.31437 0
0.543073 0 0
0 0 0
1 0 0
1 1 0
0 1 0
0 0 0
0 0 0
1 0 0
1 1 0
0 1 0
0 0 0
0 0 0
0.0603865 0 0
0.0384922 0.0252071 0
0 0.0674876 0
0 0 0
0 0 0
1 0 0
1 1 0
0 1 0
0 0 0
0.50737 0 0
1 0 0
1 0.463376 0
0.790468 0.273931 0
0.50737 0 0
0 0 0
1 0 0
1 1 0
0 1 0
0 0 0
0 0 0
0.0571292 0 0
0.0330418 0.0262435 0
0 0.0606044 0
0 0 0
0 0 0
1 0 0
1 1 0
0 1 0
0 0 0
0 0 0
1 0 0
1 1 0
0 1 0
0 0 0
0.396746 0 0
1 0 0
1 0.456213 0
0.852621 0.352093 0
0.731928 0.26227 0
0.396746 0 0
0 0 0
1 0 0
1 1 0
0 1 0
0 0 0
0 0 0
0.0855271 0 0
0 0.11515 0
0 0 0
0 0 0
1 0 0
1 1 0
0 1 0
0 0 0
0 0 0
1 0 0
1 1 0
0 1 0
0 0 0
0 0 0
0.0961526 0 0
0 0.121025 0
0 0 0
0.452553 0 0
1 0 0
1 0.458879 0
0.96616 0.432422 0
0.754889 0.2623 0
0.556072 0.0921979 0
0.452553 0 0
0.471067 0 0
1 0 0
1 0.467938 0
0.955589 0.431224 0
0.756404 0.26147 0
0.556995 0.0809015 0
0.471067 0 0
0.510246 0 0
1 0 0
1 0.42849 0
0.861363 0.314317 0
0.685006 0.161193 0
0.605142 0.0895108 0
0.510246 0 0
0.588603 0 0
1 0 0
1 0.49375 0
0.802514 0.269495 0
0.588603 0 0
0.595708 0 0
1 0 0
1 0.437024 0
0.777509 0.204051 0
0.595708 0 0
0.516004 0 0
1 0 0
1 0.482568 0
0.785045 0.27628 0
0.516004 0 0
0 0 0
1 0 0
1 1 0
0 1 0
0 0 0
0.621482 0 0
1 0 0
1 0.545264 0
0.825021 0.300852 0
0.621482 0 0
0 0 0
0.381551 0 0
0.910262 0.391542 0
0.926706 0.40398 0
1 0.460567 0
1 1 0
0 1 0
0 0 0
0.531254 0 0
1 0 0
1 0.452761 0
0.850706 0.31649 0
0.683563 0.155372 0
0.610679 0.0829369 0
0.531254 0 0
0 0 0
1 0 0
1 1 0
0 1 0
0 0 0
0 0 0
0.0727552 0 0
0.0546841 0.0221279 0
0 0.0858126 0
0 0 0
0 0 0
1 0 0
1 1 0
0 1 0
0 0 0
0 0 0
1 0 0
1 1 0
0 1 0
0 0 0
0.342155 0.0312589 0
0.299227 0 0
1 0 0
1 0.480684 0
0.971387 0.462121 0
0.656236 0.250607 0
0.342155 0.0312589 0
0 0 0
1 0 0
1 1 0
0 1 0
0 0 0
0 0 0
0.10773 0 0
0.0180264 0.123832 0
0 0.148183 0
0 0 0
0 0 0
1 0 0
1 1 0
0 1 0
0 0 0
0.428975 0 0
1 0 0
1 0.481802 0
0.840607 0.355839 0
0.729697 0.263442 0
0.428975 0 0
0 0 0
1 0 0
1 1 0
0 1 0
0 0 0
0 0 0
1 0 0
1 1 0
0 1 0
0 0 0
0 0 0
1 0 0
1 1 0
0 1 0
0 0 0
0.407252 0 0
1 0 0
1 0.472849 0
0.842471 0.355258 0
0.727323 0.264688 0
0.407252 0 0
0 0 0
1 0 0
1 1 0
0 1 0
0 0 0
0 0 0
1 0 0
1 1 0
0 1 0
0 0 0
0 0 0
1 0 0
1 1 0
0 1 0
0 0 0
0 0 0
1 0 0
1 1 0
0 1 0
0 0 0
0 0 0
0.387732 0 0
0.921285 0.370866 0
1 0.426853 0
1 1 0
0 1 0
0 0 0
0.128545 0 0
1 0 0
1 0.510766 0
0.336355 0.126206 0
0.128545 0 0
0 0 0
0.10634 0 0
0.00379387 0.134096 0
0 0.138957 0
0 0 0
0 0 0
1 0 0
1 1 0
0 1 0
0 0 0
0 0 0
1 0 0
1 1 0
0 1 0
0 0 0
0 0 0
1 0 0
1 1 0
0 1 0
0 0 0
0 0 0
0.0946415 0 0
0 0.112426 0
0 0 0
0 0 0
1 0 0
1 1 0
0 1 0
0 0 0
0 0 0
0.308667 0 0
0.379761 0.0518284 0
0.889622 0.431686 0
1 0.517528 0
1 1 0
0 1 0
0 0 0
0 0 0
1 0 0
1 1 0
0 1 0
0 0 0
0.524958 0.060715 0
0.506833 0 0
1 0 0
1 1 0
0.848947 1 0
0.582206 0.238062 0
0.524958 0.060715 0
0 0 0
0.377489 0 0
0.921561 0.367967 0
1 0.422267 0
1 1 0
0 1 0
0 0 0
0.389786 0 0
1 0 0
1 0.491142 0
0.822237 0.358309 0
0.389786 0 0
0 0 0
1 0 0
1 1 0
0 1 0
0 0 0
0.478588 0 0
1 0 0
1 0.498783 0
0.920097 0.427202 0
0.746703 0.266782 0
0.557053 0.0801821 0
0.478588 0 0
0.523275 0 0
1 0 0
1 0.503469 0
0.779107 0.278852 0
0.523275 0 0
0 0 0
1 0 0
1 1 0
0 1 0
0 0 0
0 0 0
1 0 0
1 1 0
0 1 0
0 0 0
0 0 0
1 0 0
1 1 0
0 1 0
0 0 0
0.50924 0 0
1 0 0
1 0.495979 0
0.777435 0.279576 0
0.50924 0 0
0 0 0
1 0 0
1 1 0
0 1 0
0 0 0
0 0 0
1 0 0
1 1 0
0 1 0
0 0 0
0 0 0
1 0 0
1 1 0
0 1 0
0 0 0
0 0 0
1 0 0
1 1 0
0 1 0
0 0 0
0.538312 0 0
1 0 0
1 0.511297 0
0.781275 0.277912 0
0.538312 0 0
0 0 0
1 0 0
1 1 0
0 1 0
0 0 0
0 0 0
1 0 0
1 1 0
0 1 0
0 0 0
0 0 0
1 0 0
1 1 0
0 1 0
0 0 0
0 0 0
1 0 0
1 1 0
0 1 0
0 0 0
0 0 0
1 0 0
1 1 0
0 1 0
0 0 0
0.44053 0 0
1 0 0
1 0.512253 0
0.82405 0.361001 0
0.721318 0.26784 0
0.44053 0 0
0 0 0
1 0 0
1 1 0
0 1 0
0 0 0
0 0 0
1 0 0
1 1 0
0 1 0
0 0 0
0 0 0
1 0 0
1 1 0
0 1 0
0 0 0
0 0 0
1 0 0
1 1 0
0 1 0
0 0 0
0 0 0
1 0 0
1 1 0
0 1 0
0 0 0
0 0 0
1 0 0
1 1 0
0 1 0
0 0 0
0 0 0
0.0072485 0 0
0 0.010222 0
0 0 0
0 0 0
1 0 0
1 1 0
0 1 0
0 0 0
0 0 0
1 0 0
1 1 0
0 1 0
0 0 0
0.497842 0 0
1 0 0
1 0.50767 0
0.914521 0.42657 0
0.749829 0.26507 0
0.558265 0.0653417 0
0.497842 0 0
0 0 0
1 0 0
1 1 0
0 1 0
0 0 0
0 0 0
1 0 0
1 1 0
0 1 0
0 0 0
0 0 0
1 0 0
1 1 0
0 1 0
0 0 0
0 0 0
1 0 0
1 1 0
0 1 0
0 0 0
0 0 0
0.00642503 0 0
0.000596878 0.00687879 0
0 0.00754833 0
0 0 0
0 0 0
1 0 0
1 1 0
0 1 0
0 0 0
0.461467 0 0
1 0 0
1 0.521103 0
0.824013 0.361013 0
0.724945 0.265936 0
0.461467 0 0
0 0 0
1 0 0
1 1 0
0 1 0
0 0 0
0 0 0
1 0 0
1 1 0
0 1 0
0 0 0
0 0 0
1 0 0
1 1 0
0 1 0
0 0 0
0 0 0
1 0 0
1 1 0
0 1 0
0 0 0
0 0 0
1 0 0
1 1 0
0 1 0
0 0 0
0 0 0
0.00498264 0 0
0 0.00474611 0
0 0 0
0 0 0
1 0 0
1 1 0
0 1 0
0 0 0
0 0 0
1 0 0
1 1 0
0 1 0
0 0 0
0 0 0
1 0 0
1 1 0
0 1 0
0 0 0
0 0 0
1 0 0
1 1 0
0 1 0
0 0 0
0.312787 0 0
1 0 0
1 0.823196 0
0.69575 0.469667 0
0.420328 0.138002 0
0.312787 0 0
0 0 0
1 0 0
1 1 0
0 1 0
0 0 0
0 0 0
1 0 0
1 1 0
0 1 0
0 0 0
0 0 0
1 0 0
1 1 0
0 1 0
0 0 0
0 0 0
1 0 0
1 1 0
0 1 0
0 0 0
0 0 0
1 0 0
1 1 0
0 1 0
0 0 0
0 0 0
1 0 0
1 1 0
0 1 0
0 0 0
0 0 0
1 0 0
1 1 0
0 1 0
0 0 0
0 0 0
1 0 0
1 1 0
0 1 0
0 0 0
0 0 0
1 0 0
1 1 0
0 1 0
0 0 0
0.332188 0 0
1 0 0
1 0.748132 0
0.768023 0.494822 0
0.332188 0 0
0 0 0
1 0 0
1 1 0
0 1 0
0 0 0
0 0 0
1 0 0
1 1 0
0 1 0
0 0 0
0 0 0
1 0 0
1 1 0
0 1 0
0 0 0
0 0 0
1 0 0
1 1 0
0 1 0
0 0 0
0 0 0
1 0 0
1 1 0
0 1 0
0 0 0
0.301949 0 0
1 0 0
1 0.707955 0
0.752181 0.469261 0
0.512296 0.224839 0
0.301949 0 0
0 0 0
1 0 0
1 1 0
0 1 0
0 0 0
0 0 0
0.00905474 0 0
0 0.00724707 0
0 0 0
0 0 0
1 0 0
1 1 0
0 1 0
0 0 0
0 0 0
1 0 0
1 1 0
0 1 0
0 0 0
0.295941 0 0
1 0 0
1 0.639523 0
0.491122 0.187418 0
0.295941 0 0
0 0 0
1 0 0
1 1 0
0 1 0
0 0 0
0 0 0
1 0 0
1 1 0
0 1 0
0 0 0
0 0 0
1 0 0
1 1 0
0 1 0
0 0 0
0 0 0
1 0 0
1 1 0
0 1 0
0 0 0
0 0 0
1 0 0
1 1 0
0 1 0
0 0 0
0 0 0
1 0 0
1 1 0
0 1 0
0 0 0
0 0 0
1 0 0
1 1 0
0 1 0
0 0 0
0 0 0
1 0 0
1 1 0
0 1 0
0 0 0
0.299161 0 0
1 0 0
1 0.761202 0
0.299161 0 0
0 0 0
0.00574496 0 0
0 0.00430024 0
0 0 0
0 0 0
1 0 0
1 1 0
0 1 0
0 0 0
0.310691 0 0
1 0 0
1 0.786238 0
0.310691 0 0
0 0 0
1 0 0
1 1 0
0 1 0
0 0 0
0 0.0424728 0
0.28486 0.242236 0
0.66994 0.522343 0
1 0.770664 0
1 1 0
0 1 0
0 0.0424728 0
0 0 0
1 0 0
1 1 0
0 1 0
0 0 0
0 0 0
0.101573 0 0
0.0932985 0.0147849 0
0 0.17086 0
0 0 0
0.317183 0 0
1 0 0
1 0.652806 0
0.492956 0.17768 0
0.317183 0 0
0 0 0
1 0 0
1 1 0
0 1 0
0 0 0
0 0 0
0.0810279 0 0
0.336751 0.229273 0
0.737006 0.600228 0
1 0.850426 0
1 1 0
0 1 0
0 0 0
0 0 0
1 0 0
1 1 0
0 1 0
0 0 0
0 0 0
0.0164413 0 0
0 0.017975 0
0 0 0
0 0 0
1 0 0
1 1 0
0 1 0
0 0 0
0 0 0
0.0511118 0 0
0.26097 0.164138 0
0.328655 0.2186 0
[...]
CELL_DATA 6217
FIELD FieldData 3
weight 1 6217 float
 0.915642 0.865687 0.92167 0.909355 0.91551 0.86572 0.909297 0.921734 0.921676 0.871678 0.915591 0.915409 0.927998 0.878104 0.928034 0.871798 0.928249 0.877998 0.921901 0.73415 0.878288 0.934244 0.884552 0.934404 0.934129 0.715844 0.88454 0.921956 0.927892 0.928273 0.934604 0.878286 0.934457 0.871629 0.940601 0.940687 0.953043 0.94706 0.878123 0.946872 0.940862 0.940802 0.871951 0.940635 0.946803 0.952909 0.95311 0.94674 0.953108 0.884598 0.946841 0.72176 0.928276 0.922061 0.928089 0.884148 0.928339 0.934468 0.934233 0.728206 0.934245 0.928327 0.878366 0.734386 0.927894 0.740569 0.934318 0.859444 0.934562 0.940493 0.734259 0.940405 0.853367 0.946685 0.946658 0.728176 0.952903 0.859407 0.952981 0.72817 0.940789 0.947003 0.865389 0.940412 0.722105 0.952881 0.946768 0.734364 0.865665 0.865823 0.859508 0.859253 0.853086 0.865717 0.947092 0.859465 1.14066 0.865537 1.13456 0.734398 1.13432 0.953183 0.877944 0.959576 0.740867 0.953258 0.871711 0.965813 0.959208 0.959553 0.87181 0.965741 0.96577 0.959215 0.95947 1.14073 0.884592 0.740424 0.965565 0.965474 0.971878 0.734383 0.977962 1.14671 0.971786 0.884535 1.1471 0.878045 0.972074 0.87803 0.871907 0.98416 0.97833 0.978247 0.871905 1.1404 0.971849 0.971993 1.13448 0.871672 0.971937 1.14704 0.984285 1.1404 0.978158 0.884326 0.97796 1.14062 0.959444 0.959369 1.14702 0.96538 0.746696 1.1219 0.96563 0.877913 1.12794 0.971698 1.12827 0.965399 0.752893 1.13415 0.884437 0.95961 1.12822 0.959142 1.12211 0.959135 0.753253 1.1281 0.965721 1.12823 0.965789 0.897106 0.971765 1.1343 0.972097 1.13456 0.98433 1.1405 0.978228 1.14062 0.978236 0.89081 0.984279 1.14687 0.971907 1.13418 0.971752 0.896655 1.13435 0.753304 1.14045 0.977954 0.890817 0.977928 1.14064 0.984323 0.978223 1.1407 0.984156 1.14675 0.934189 0.897111 0.753077 0.928293 0.903353 0.928079 1.1469 0.940632 0.7531 0.890746 0.934443 1.15302 0.928098 0.759498 0.92791 1.15307 0.927918 0.890406 0.934301 0.759199 0.940484 0.896838 0.934564 0.934477 0.759598 1.15305 0.89702 0.947033 0.940453 0.765784 0.940527 0.90311 0.946809 1.15931 0.765641 0.953261 1.15942 0.953268 0.897039 0.953267 0.771845 0.903046 0.946712 1.14682 0.946916 0.76543 0.909599 0.94074 0.953209 1.15297 0.771865 0.953208 0.90953 0.946754 0.934183 0.915613 0.771928 0.909432 0.915789 0.765788 1.15307 0.759184 0.9281 1.15924 0.759349 0.903081 0.928173 0.934333 0.765404 0.90913 1.15925 0.940574 0.93432 0.759212 0.909572 1.16561 0.940784 0.915629 0.927951 1.16565 0.928238 0.928107 0.915584 0.772112 0.93449 0.940687 0.934166 0.946693 0.77172 0.890622 0.940833 1.17182 0.946668 0.953246 0.94681 0.890461 0.953137 0.772018 1.16581 0.884586 0.946756 0.940425 1.15961 0.740708 0.89074 0.946922 1.16572 0.95298 0.952876 0.897014 0.953253 0.74054 1.1718 0.903018 0.747 0.959522 1.16571 0.897053 0.95931 0.753192 0.959402 1.17211 0.965838 0.890391 0.965453 0.965792 0.753229 0.959523 0.89057 0.959536 1.15295 0.965609 0.971696 0.753127 0.896805 1.14702 0.965449 0.752955 0.902894 0.971846 1.15308 0.971956 0.896649 0.984465 0.746865 0.978282 1.15929 0.978124 0.890639 0.972003 0.746631 1.15333 0.978291 0.978147 0.909595 0.977883 0.753303 0.984279 1.15956 0.984536 0.902925 0.959242 0.746969 0.95945 0.909172 0.959498 1.14689 0.759569 0.965446 0.90312 0.965705 0.959323 1.15334 0.959476 0.759316 0.915618 0.965554 1.15322 0.96539 0.96584 0.75921 0.915398 1.15939 0.971648 0.978213 0.915689 1.15927 0.971824 0.765396 0.90936 1.16583 0.971809 0.765668 0.909199 1.16547 0.971991 0.903115 0.984263 0.759141 1.17207 0.977965 0.984322 0.903179 0.765731 0.971808 1.16581 0.977988 0.77177 1.15931 0.978003 0.915669 0.978287 1.16576 0.98433 0.909215 0.772036 1.17211 0.984513 0.915742 1.16572 1.17171 0.853065 0.777886 1.1719 0.702997 0.859236 0.771866 0.853217 0.76563 0.709412 1.17184 0.852998 0.771838 1.1779 0.859216 0.703047 0.865598 0.765489 1.17806 0.715626 0.865456 0.765751 1.18419 0.721657 1.17815 0.865814 0.772038 0.715486 0.853109 1.17803 0.859532 0.721653 0.778058 1.17808 0.853106 0.709333 0.778239 1.17183 0.859343 0.703111 0.865537 0.70943 1.1844 0.709589 0.859541 1.18428 0.865396 0.703146 0.703189 0.871943 0.721732 1.19081 0.72176 1.19086 0.715858 0.871999 0.721665 0.721915 1.1906 0.715382 0.878322 0.715717 0.71586 0.884458 1.18417 0.715613 0.703325 0.709409 0.878118 1.19676 0.728257 0.709548 1.19669 0.878214 0.702908 0.727996 1.19042 0.872021 1.1842 0.709308 0.728334 0.87196 0.715503 1.19062 0.734145 0.871922 0.721905 1.19687 0.715466 0.8782 0.715411 0.740491 0.721683 0.721653 0.728144 0.740411 0.728311 0.734468 0.734283 0.728155 0.740708 0.740646 0.740723 0.728118 0.740717 0.721967 0.734559 0.728169 0.728012 0.734323 0.740874 0.734244 0.734213 0.728323 0.734428 0.728255 0.740729 0.74082 0.740624 1.19678 0.709126 0.703122 0.878083 0.709329 1.19702 0.715839 1.17799 0.852994 0.722123 0.709565 1.17817 0.715429 0.853154 0.721858 1.17166 0.853295 0.709495 1.18413 0.859374 0.70921 0.859317 0.715427 1.17811 0.702949 0.853047 0.721644 1.18462 0.709434 0.846892 1.1782 0.715412 0.715689 0.84673 0.721749 1.17799 0.853026 0.722007 1.18435 0.846783 0.715691 1.18441 0.722091 0.859303 1.18454 0.734387 0.853372 1.19064 0.728299 0.722035 0.859382 1.19086 0.728086 0.715793 0.859464 0.734207 1.19085 0.734127 0.721791 0.872023 1.1968 0.740585 0.715616 0.865678 1.19701 0.72803 0.740483 0.865652 0.721998 0.728078 1.19047 0.865694 0.728282 0.734483 0.878084 1.19041 0.734539 0.728339 0.872083 1.19677 0.740515 0.878191 1.19672 0.734422 1.19683 0.877933 0.740773 0.734371 1.15288 0.865758 0.740586 0.734167 0.740782 1.15294 0.86563 0.74075 1.15926 0.746729 0.728231 0.865699 1.15301 0.746916 0.728203 0.877932 1.14711 0.753265 1.15297 0.871649 1.15314 0.740379 0.759577 0.872115 1.15926 0.740457 0.753365 0.871815 1.15937 0.878161 0.73443 0.759215 1.15958 0.890795 0.753311 0.884549 0.740858 1.16542 0.884586 1.16574 0.759136 0.734409 0.890787 1.17169 0.753072 0.896863 0.753136 1.16566 0.746765 0.896831 1.15944 0.896848 0.746706 0.746993 1.16542 0.88445 0.74701 1.16562 0.746832 0.759317 0.884529 1.17209 0.753344 0.753375 0.884219 1.17187 1.14707 0.759295 0.890462 1.15325 0.759422 1.15334 0.759466 0.897116 1.15325 1.15945 1.15944 0.765653 0.759458 1.14697 0.896893 1.14673 1.15293 1.1529 0.890804 1.15959 0.765496 0.753031 1.15913 0.765776 0.909225 1.1656 0.74694 0.77169 0.903031 1.16555 0.772036 0.747061 0.77792 0.903071 1.17196 1.16556 0.778165 1.15923 0.759433 0.915663 1.16541 0.777982 0.752889 0.909289 0.765544 1.17176 1.17168 1.16562 0.909589 0.771674 0.75297 0.903141 1.17171 0.765863 0.896957 0.75923 1.17804 0.771907 0.903209 0.765856 0.778166 0.903255 1.17817 0.77791 0.915745 1.18439 0.765624 0.77163 0.909507 1.17174 0.778222 0.909355 1.17809 0.771895 0.915853 1.17816 0.746727 1.17824 0.77164 0.746791 0.890447 0.752882 1.18436 0.778352 0.747101 1.18444 0.884203 0.759218 0.778255 1.19058 0.8846 0.752928 1.18428 0.778322 0.896698 0.759269 0.765865 0.759504 1.18427 0.890504 0.772076 0.74664 1.19702 0.89671 0.746789 0.765393 1.19057 0.753065 0.890454 1.19062 0.759338 0.765667 0.884447 1.19711 0.753083 0.772053 0.884512 0.759569 1.1908 0.778368 0.87815 0.765469 1.19079 0.777988 0.884425 0.772005 1.19687 0.765799 0.747026 1.19712 0.890685 0.777945 0.753359 0.771671 0.896942 0.746939 0.778229 0.890444 1.19666 0.771712 0.75932 1.17811 0.890656 0.76543 1.17199 0.90935 0.753014 0.765844 1.17205 0.903326 0.759546 1.17819 0.765618 0.902998 1.18454 0.909595 0.771817 0.747049 1.18422 0.909493 0.778175 1.17834 0.778288 0.746808 0.897003 0.777882 1.17832 0.746816 0.902918 0.771856 0.902992 1.17808 0.778217 0.752982 0.784262 0.896666 0.75329 0.778037 1.18446 0.777948 0.909139 0.753265 1.19064 0.790777 0.909227 0.759145 0.784217 1.19062 0.784592 0.759188 1.19056 0.790808 0.909185 0.759255 0.777934 1.19696 0.784239 0.765429 0.902942 1.19675 0.784204 0.765558 0.778035 0.921932 0.772081 0.790676 1.19081 0.921757 0.772003 0.784181 0.921693 1.18429 0.777984 0.790586 0.928048 0.79084 0.77822 1.18425 0.790814 0.928132 0.772009 1.19696 0.796693 0.771743 0.796956 1.19694 0.934133 0.796775 0.765794 0.802985 0.934574 0.765729 0.809388 1.19697 0.9344 0.765806 0.922109 0.802957 1.19084 0.778252 0.921956 0.984486 0.802879 0.990718 0.921884 0.99047 0.772119 0.996991 0.928301 0.809334 0.997086 0.99057 0.984323 0.777895 0.928226 0.990563 0.803263 0.990496 0.996746 0.778155 0.997049 0.796885 0.934243 0.709131 0.997105 0.796673 1.00333 1.00337 1.00937 0.803165 1.00937 0.940849 0.709352 1.00962 1.0092 1.00337 0.940684 0.703154 0.809537 1.00325 0.946634 1.00326 1.01538 1.0095 0.990459 0.94665 0.98432 0.722082 0.996857 0.996989 0.946719 0.803042 0.990676 0.996814 0.721748 0.990477 0.809178 0.940692 0.715778 0.984602 0.990607 0.778237 0.990809 0.703258 0.996889 0.934306 0.778077 1.00303 1.00312 0.709201 1.00328 0.940462 1.00924 0.78432 1.00934 0.709213 0.996739 0.940507 1.00336 0.784386 1.00292 0.703279 0.946741 1.00953 1.00955 1.01561 0.790644 1.00943 0.71563 0.947029 1.01556 0.921815 1.01569 0.796829 0.790807 0.79082 1.02192 0.790744 0.721992 0.78446 1.02198 1.02196 0.790695 0.721826 0.928081 0.784459 0.715605 1.01546 0.784261 0.722075 1.01565 0.921759 1.02211 0.796631 1.02797 0.715875 0.928199 1.02179 0.796979 1.02824 0.72791 1.03431 0.928116 1.02825 0.803032 1.04044 0.934483 0.728134 1.03441 1.03456 0.728254 1.02803 0.92807 0.796702 1.03413 1.02799 0.740663 0.803111 1.04073 1.03449 0.734336 0.797004 0.915671 1.01576 0.809217 0.734333 1.01566 1.02163 1.02171 0.921756 0.809472 1.02824 0.734212 1.02809 0.809516 1.01555 0.740687 0.921845 0.809186 1.01587 1.02171 1.02169 0.803045 0.921668 1.028 1.02163 1.03432 0.80324 1.03416 0.934502 0.809219 1.02822 1.04074 0.803013 1.04059 0.934612 1.03428 1.02832 0.815833 1.03452 0.928329 1.03452 0.809408 1.04038 1.04076 0.984167 0.940707 0.815722 0.990412 0.99074 0.809479 0.996962 0.934232 0.996741 0.815853 0.990749 0.934282 0.990736 0.984577 0.990681 0.997059 0.946675 0.996812 0.815668 0.996812 1.00317 1.00308 0.947022 1.0094 1.00289 1.00932 0.946735 0.815636 1.00932 1.01566 1.00317 1.0029 0.9405 1.00956 0.828279 1.0096 0.984383 0.940485 0.99072 0.821718 0.996922 0.990504 0.996861 0.934573 0.984221 0.821742 0.990428 0.990456 0.990554 0.946702 0.996728 0.827919 1.00316 1.00307 0.940755 1.00923 0.953341 1.00929 0.821662 0.959615 1.00941 1.00311 0.81564 0.953341 1.00323 0.997044 0.815771 0.996833 1.00925 0.953117 1.00922 1.01585 0.965434 0.821937 1.02183 0.959315 1.02202 0.815855 1.02794 0.959528 1.02197 1.01565 0.828314 0.953245 1.01571 0.965511 1.01585 1.02183 1.02165 0.959603 1.02796 1.02799 1.03449 0.959151 1.03451 0.971664 1.03437 0.828098 0.971844 1.04067 0.821771 0.965765 1.02809 0.978321 1.02794 0.972014 1.04072 0.828173 0.978354 1.0344 0.97169 1.03418 1.01586 0.965808 1.01548 0.972051 1.02181 0.978118 1.0217 0.978203 1.01559 0.834197 0.978071 1.01561 1.01573 1.02201 1.0221 0.834609 0.953271 1.02819 0.828356 1.02826 0.734473 1.03413 0.952953 1.03434 0.83427 1.028 0.728246 1.02808 0.953263 1.02799 0.840469 1.03413 0.734419 0.959469 1.03433 1.04676 1.04059 0.840792 1.0407 0.728008 1.05291 0.959517 0.846817 1.04688 1.04683 0.740766 1.05325 0.840776 1.04703 0.740718 0.952934 1.0404 1.04067 0.834164 0.953091 0.740851 1.05321 1.04708 0.834552 0.947083 1.05931 1.05954 0.840821 1.05326 0.959204 1.06545 1.06572 1.06557 1.05956 0.8404 1.05939 0.953052 1.05337 0.703287 1.06539 0.840704 1.06568 0.959549 0.703285 1.05949 0.846657 1.04682 1.04709 0.965779 0.715438 1.04075 0.815535 1.05303 0.971892 1.05326 0.821756 1.04682 1.04701 0.965771 1.05336 0.821683 1.04674 1.05926 1.05932 0.965436 0.815867 1.06581 0.715592 1.06567 0.971974 1.05915 0.827912 1.05313 0.977911 1.05297 0.709219 1.05956 1.05925 1.06552 0.827904 1.0719 0.703316 1.07169 1.07797 0.821936 1.08418 1.07815 0.70938 0.978215 0.821811 1.07796 1.07181 1.07185 0.703159 1.07163 0.965675 1.07835 0.815705 1.07808 1.09047 1.08449 1.08447 1.09051 0.822058 1.0905 0.722051 1.09684 0.972024 0.828034 1.08446 0.715866 1.08435 0.827987 0.965598 0.721976 1.09054 0.828342 1.09044 0.71587 1.07164 0.834199 0.727876 0.965756 1.06586 1.07189 0.834197 1.07796 1.07796 0.72199 1.07191 0.971835 0.834289 1.06587 0.721861 1.0779 1.07187 0.846788 1.08435 0.72796 0.978126 1.07188 1.08415 0.840429 1.08442 1.07826 0.734196 1.09068 0.840763 1.09078 0.740651 1.09058 1.07821 0.978089 0.846863 1.09067 0.740561 1.09706 1.08439 0.921871 1.0844 0.834419 0.73452 1.04081 0.915421 1.04053 0.840398 0.727929 1.04703 1.04693 0.922117 1.05315 0.834388 0.72193 1.05314 1.04669 0.728255 0.92821 0.840602 1.04087 0.734539 1.05323 0.928304 0.840455 1.04663 1.05335 0.734149 0.928279 0.846629 1.05917 0.740729 1.05942 0.846727 1.05328 1.06582 0.921837 1.05927 0.734481 1.0595 0.790568 1.06548 0.921674 0.740742 1.0594 0.784432 1.06559 1.06553 0.921858 0.746846 1.04065 1.04048 0.746858 1.04688 1.04695 1.05288 1.04705 0.753136 1.04044 0.784418 1.0406 0.746821 1.04058 1.04667 0.915582 0.790412 1.04686 1.05301 0.927885 1.05923 0.752985 0.797016 1.05955 0.928035 1.06543 1.05933 0.790449 1.05333 0.759372 0.927991 1.05311 0.796776 1.05333 0.759423 1.05957 1.06577 0.934505 1.05933 0.796784 0.75915 1.07206 0.940556 0.79043 1.078 0.75321 1.0658 1.08414 0.784475 1.0782 0.934528 1.07209 0.746747 1.07178 1.07163 0.784516 1.07207 1.08436 0.74668 0.78421 0.947085 1.07827 1.09058 0.759303 1.08458 0.796998 1.07806 1.09689 0.753364 0.940755 1.09688 0.797097 1.09044 1.09039 0.759308 0.940384 0.790616 1.07798 0.752941 1.08414 0.796898 1.0908 1.08461 0.765855 1.0906 0.94682 1.0971 0.803317 1.06567 1.07196 0.940455 0.809571 1.072 0.765793 1.07182 0.934172 1.07796 0.803165 1.078 0.771835 1.07826 0.934429 0.809236 1.06559 0.771677 1.07188 0.946788 0.815406 1.07166 0.940598 0.77197 0.80303 0.940436 1.07791 1.08448 0.777941 0.809499 1.08425 1.09086 0.915466 0.80314 0.777999 1.09074 0.803106 0.915687 0.765568 0.815791 1.08423 0.921921 0.815559 0.771838 1.07824 0.92197 0.80915 0.765637 1.08413 0.927946 0.815875 0.76555 1.09044 0.778033 0.915779 0.809622 1.0904 0.778248 0.915761 0.784488 1.09709 0.915469 0.78436 0.778205 1.08423 0.921868 0.98433 0.784246 0.771731 0.984554 0.984175 0.921643 0.996692 0.790584 0.753103 0.99066 0.990771 0.990828 0.796784 0.746698 0.922069 0.98446 0.984601 0.796941 0.984621 0.752891 0.996645 0.928155 0.990813 0.796625 0.746911 1.00304 0.997017 0.790672 0.934612 0.75919 1.00318 1.00925 0.784587 0.934323 0.759545 1.00306 1.00925 0.790638 0.996906 0.759558 0.928294 1.00333 0.78422 0.997109 0.746681 1.00957 0.934196 1.00331 0.984262 0.990389 0.79084 0.940516 0.747042 0.796921 0.984168 0.940465 0.747014 0.797119 0.990536 0.934558 0.809437 0.753306 0.990431 0.928154 0.80331 0.996981 0.753348 0.934348 0.802998 0.759183 0.984247 0.809562 0.759172 0.928333 0.809224 0.977935 0.940381 0.765633 0.815673 0.990751 0.771915 0.815814 0.940646 0.765739 0.803124 0.984322 0.777905 0.940438 0.809189 0.771933 0.990784 0.809285 0.93449 1.00316 0.778292 0.803344 0.765866 0.997091 0.953043 0.81576 0.772001 1.00295 0.946697 0.765453 0.821719 1.00924 0.778319 0.815535 1.0033 0.959268 0.77201 0.821679 0.997121 0.771885 0.959427 0.996996 0.815843 0.77822 0.953243 0.99665 0.821637 0.959255 0.821651 1.00324 0.790874 0.828251 0.953362 1.00337 1.01578 0.828012 1.01574 0.784255 1.02195 0.953016 0.82824 1.02211 1.01586 1.01574 0.821805 0.946719 0.78449 1.01555 0.821801 1.00933 0.790726 0.95962 0.827968 1.0221 0.79692 1.02207 0.82806 1.02194 0.797085 1.02792 0.834269 1.02803 0.959233 1.03458 0.840601 1.03439 0.796685 1.03461 0.834482 0.790489 0.953346 0.840763 1.02816 0.78431 0.83424 1.02791 0.784477 0.834392 0.965592 1.02789 0.846686 1.03451 0.790695 0.971772 0.847034 1.03432 0.796682 0.965426 0.846676 0.790518 1.0154 0.840755 0.796851 0.971898 1.00923 0.83456 0.80926 1.00914 0.840555 1.02168 0.971765 0.803001 1.01557 0.84697 0.802927 0.97833 1.02171 0.846799 0.809496 1.00954 0.846641 0.803038 0.965571 0.821691 1.00915 0.822089 1.01553 0.815395 0.96578 0.828353 1.01558 0.815566 0.822122 1.01551 0.815675 0.965514 0.834386 1.02799 0.809215 0.971965 0.834281 1.02809 0.828287 1.02176 0.803296 0.834279 0.972088 1.03452 0.947101 0.821843 0.80925 1.03423 0.947007 0.827925 0.809235 0.946882 0.821989 1.03438 0.828284 0.952978 0.803278 1.02173 0.828309 0.953278 0.815726 1.02826 0.834416 0.959447 0.815579 1.02207 0.834209 0.947056 0.784257 1.03448 0.834374 0.784156 0.946894 1.02834 0.840618 0.784208 0.947091 1.0343 0.840803 0.953038 0.790565 0.840573 0.978021 0.797009 0.953173 0.846866 0.797116 0.953178 0.852981 0.984245 0.790464 0.847104 0.965759 0.784241 0.853041 0.959197 0.984135 0.79044 0.853021 0.95939 0.840708 0.784163 0.990541 0.965504 0.840392 0.796655 0.971871 0.984457 0.846843 0.790497 0.971871 0.990768 0.790679 0.971717 0.853178 0.978329 0.796955 0.959526 0.796839 0.965441 0.978175 0.853226 0.959319 0.98461 0.846755 0.803149 0.984447 0.709464 0.959412 0.803034 0.990526 0.70292 0.803218 0.96539 0.984528 0.703065 0.809352 0.703332 0.990642 0.971646 0.815438 0.709151 0.996728 0.815849 0.715708 0.965638 0.990509 0.721851 0.815485 0.971942 0.715747 0.996923 0.715631 0.809623 0.977934 1.00335 0.803336 0.721894 1.00297 0.802976 0.702966 0.978102 0.802905 1.00333 0.809424 0.984515 0.990501 0.703266 0.984348 0.709287 0.81542 0.997042 0.715832 0.809568 0.996922 0.98458 0.815498 0.721986 0.996968 0.821744 0.715572 1.00334 0.72181 0.977977 1.00298 0.828007 0.728232 0.978181 0.978057 0.82208 0.978294 0.734127 0.978209 0.978111 0.734209 0.834414 0.984468 0.727902 0.984243 0.82801 0.984197 0.734561 0.984506 0.834602 0.990727 0.740441 0.990527 0.727893 0.821786 0.99047 0.722094 0.978085 0.728272 0.996693 0.828253 0.734611 0.978007 0.990538 0.740868 0.821893 0.990504 0.7344 0.828237 0.996705 0.971752 0.734325 0.834518 1.00315 0.702978 0.97815 0.827908 0.709409 0.984354 0.834433 0.709355 0.846897 0.709449 0.840795 0.702939 0.721829 0.71546 0.846726 0.715795 0.840522 0.702917 0.709463 0.853098 0.709325 0.853313 0.840761 0.71587 0.840563 0.722026 0.84068 0.722029 0.853101 0.727936 0.846962 0.721875 0.846958 0.727882 0.852991 0.728061 0.740658 0.85322 0.984433 0.828068 0.734156 0.821834 0.734199 0.821923 0.997112 0.990577 0.740522 0.822015 0.740771 0.834217 0.72814 0.834202 0.721837 0.997041 0.99681 0.828246 0.728299 0.990384 0.834298 0.996771 0.734178 0.828331 0.996703 0.740621 0.821995 0.740554 1.00297 1.00293 0.734168 0.822009 0.734372 0.83454 0.996706 0.990634 0.740575 0.828256 0.746649 0.984515 0.827975 0.977915 0.7471 0.834279 0.752881 0.984255 0.990454 0.753297 0.840444 0.977918 0.75291 0.996958 0.846627 0.984266 0.759601 0.990862 0.840659 0.747002 0.997102 0.840657 0.984512 0.746736 0.846699 0.990418 0.740697 0.997034 0.852921 0.746725 1.0096 0.846698 0.978344 0.759244 1.00922 0.853361 0.753249 1.00918 0.753221 0.977894 0.853202 1.0157 0.759315 0.98415 0.84062 1.02203 0.759595 0.840448 1.01577 0.984589 0.765471 0.847122 1.00926 0.765517 0.852994 0.771986 0.990739 1.00326 0.846686 0.778208 1.01566 0.853306 0.771774 0.990445 1.00955 0.77801 0.790744 0.990668 0.7658 0.78451 1.01559 0.759618 0.996653 0.784134 0.76544 1.02802 1.00307 0.790756 0.772085 1.02212 0.784145 1.00322 0.771878 1.02169 0.79705 0.778147 1.02793 0.996769 0.772073 0.796638 1.02834 0.778057 0.796869 0.996958 1.03448 0.746686 0.784326 1.02172 0.746708 0.990499 0.784436 0.753038 1.02193 0.996876 0.796871 0.753278 1.02183 0.790768 0.759388 1.00302 0.790639 1.03424 0.759226 1.02798 0.797023 1.00305 0.752924 0.803317 0.747053 1.02791 1.00308 0.746764 0.809166 1.02821 0.753327 0.997095 0.802993 1.0093 1.00334 0.747028 0.809212 0.809422 0.753075 1.00946 1.00922 0.815437 0.759602 1.00948 0.81558 1.00295 0.759343 1.01558 1.01538 0.822008 0.802992 0.759321 1.00942 0.802955 0.765853 1.00303 0.765542 0.809379 1.00313 0.771674 0.809292 1.01568 0.771924 0.815756 0.77819 1.00914 0.809292 1.01552 0.7782 0.815661 0.7655 1.00922 0.81584 1.00299 0.765811 1.00316 0.784495 1.00959 0.765569 0.7843 1.00313 1.01586 0.790819 1.00959 0.778211 0.784136 1.01572 0.771909 1.01562 0.796949 1.00934 0.777939 1.01583 1.00926 0.790823 0.777881 1.02198 0.796928 0.771932 1.02199 1.02185 0.790628