# vtk DataFile Version 3.0
vtk output
ASCII
DATASET UNSTRUCTURED_GRID
POINTS 44489 float
0 0 0
0.00822623 0 0
0.00973776 0.0148074 0
0 0.0152846 0
0 0 0
0.00822623 0 0
0.020172 0 0
0.0205251 0.00388395 0
0.0129028 0.0159161 0
0.0120915 0.0160393 0
0.00973776 0.0148074 0
0.00822623 0 0
0.0129028 0.0159161 0
0.0205251 0.00388395 0
0.029427 0.0132148 0
0.0289064 0.0146662 0
0.0214134 0.0195876 0
0.0129028 0.0159161 0
0.020172 0 0
0.0350129 0 0
0.033998 0.0100441 0
0.029427 0.0132148 0
0.0205251 0.00388395 0
0.020172 0 0
0 0.0278061 0
0.00917698 0.0277425 0
0.0114904 0.0301705 0
0.00774653 0.0418689 0
0 0.0414709 0
0 0.0278061 0
0.00917698 0.0277425 0
0.0120915 0.0160393 0
0.0129028 0.0159161 0
0.0214134 0.0195876 0
0.0220909 0.0260069 0
0.0168639 0.0306412 0
0.0114904 0.0301705 0
0.00917698 0.0277425 0
0 0.0152846 0
0.00973776 0.0148074 0
0.0120915 0.0160393 0
0.00917698 0.0277425 0
0 0.0278061 0
0 0.0152846 0
0.0168639 0.0306412 0
0.0220909 0.0260069 0
0.0302471 0.0303224 0
0.0312282 0.0356947 0
0.0261048 0.0408939 0
0.0215828 0.0398566 0
0.0168639 0.0306412 0
0.0220909 0.0260069 0
0.0214134 0.0195876 0
0.0289064 0.0146662 0
0.0359437 0.0239665 0
0.0302471 0.0303224 0
0.0220909 0.0260069 0
0.033998 0.0100441 0
0.0350129 0 0
0.0462789 0 0
0.0463953 0.00958314 0
0.0424534 0.0127756 0
0.033998 0.0100441 0
0.0424534 0.0127756 0
0.0463953 0.00958314 0
0.0564388 0.0129232 0
0.0569524 0.0137451 0
0.0524409 0.0222779 0
0.0428353 0.0217369 0
0.0424534 0.0127756 0
0.37132 0.434309 0
0.37511 0.436203 0
0.376752 0.446373 0
0.366082 0.448913 0
0.36096 0.441659 0
0.361718 0.439064 0
0.37132 0.434309 0
0.029427 0.0132148 0
0.033998 0.0100441 0
0.0424534 0.0127756 0
0.0428353 0.0217369 0
0.0410608 0.0237406 0
0.0359437 0.0239665 0
0.0289064 0.0146662 0
0.029427 0.0132148 0
0.906659 0.349057 0
0.910102 0.347438 0
0.920586 0.35658 0
0.912632 0.363874 0
0.906029 0.362383 0
0.906659 0.349057 0
0.0564388 0.0129232 0
0.0597114 0 0
0.0658273 0 0
0.0680504 0.0149844 0
0.0655128 0.0158073 0
0.0569524 0.0137451 0
0.0564388 0.0129232 0
0.364145 0.455766 0
0.366082 0.448913 0
0.376752 0.446373 0
0.378431 0.447613 0
0.379283 0.458225 0
0.367593 0.45995 0
0.364145 0.455766 0
0.0462789 0 0
0.0597114 0 0
0.0564388 0.0129232 0
0.0463953 0.00958314 0
0.0462789 0 0
0.910102 0.347438 0
0.912456 0.342541 0
0.920888 0.341068 0
0.926674 0.349459 0
0.92095 0.356546 0
0.920586 0.35658 0
0.910102 0.347438 0
0.342723 0.453844 0
0.351367 0.45173 0
0.355538 0.456689 0
0.352945 0.464949 0
0.344988 0.466659 0
0.341073 0.463246 0
0.342723 0.453844 0
0.0302471 0.0303224 0
0.0359437 0.0239665 0
0.0410608 0.0237406 0
0.0440813 0.0332312 0
0.0376405 0.0380081 0
0.0312282 0.0356947 0
0.0302471 0.0303224 0
0.355538 0.456689 0
0.364145 0.455766 0
0.367593 0.45995 0
0.366416 0.467906 0
0.357658 0.470082 0
0.352945 0.464949 0
0.355538 0.456689 0
0.92095 0.356546 0
0.926674 0.349459 0
0.930814 0.349145 0
0.937018 0.356997 0
0.933195 0.363152 0
0.927583 0.363926 0
0.92095 0.356546 0
0.0410608 0.0237406 0
0.0428353 0.0217369 0
0.0524409 0.0222779 0
0.0558887 0.0289523 0
0.0499886 0.034951 0
0.0440813 0.0332312 0
0.0410608 0.0237406 0
0.367593 0.45995 0
0.379283 0.458225 0
0.381141 0.459862 0
0.379873 0.469781 0
0.370339 0.472027 0
0.366416 0.467906 0
0.367593 0.45995 0
0.0524409 0.0222779 0
0.0569524 0.0137451 0
0.0655128 0.0158073 0
0.0612463 0.0297813 0
0.0558887 0.0289523 0
0.0524409 0.0222779 0
0.900595 0.366335 0
0.901335 0.364797 0
0.906029 0.362383 0
0.912632 0.363874 0
0.916038 0.372559 0
0.914595 0.374656 0
0.903506 0.375639 0
0.900595 0.366335 0
0 0.0414709 0
0.00774653 0.0418689 0
0.0119172 0.0462925 0
0.0120785 0.0493061 0
0.0100906 0.0542907 0
0 0.0542644 0
0 0.0414709 0
0.322439 0.474195 0
0.330579 0.47302 0
0.334729 0.477565 0
0.332727 0.48609 0
0.326354 0.488164 0
0.320261 0.482744 0
0.322439 0.474195 0
0.0114904 0.0301705 0
0.0168639 0.0306412 0
0.0215828 0.0398566 0
0.0119172 0.0462925 0
0.00774653 0.0418689 0
0.0114904 0.0301705 0
0.920586 0.35658 0
0.92095 0.356546 0
0.927583 0.363926 0
0.923762 0.371715 0
0.916038 0.372559 0
0.912632 0.363874 0
0.920586 0.35658 0
0.0119172 0.0462925 0
0.0215828 0.0398566 0
0.0261048 0.0408939 0
0.0289339 0.0498941 0
0.0272281 0.0521039 0
0.0120785 0.0493061 0
0.0119172 0.0462925 0
0.307593 0.478652 0
0.310131 0.470968 0
0.31817 0.469595 0
0.322439 0.474195 0
0.320261 0.482744 0
0.313558 0.484581 0
0.307593 0.478652 0
0.0261048 0.0408939 0
0.0312282 0.0356947 0
0.0376405 0.0380081 0
0.0391074 0.0449094 0
0.0362342 0.0499807 0
0.0289339 0.0498941 0
0.0261048 0.0408939 0
0.341073 0.463246 0
0.344988 0.466659 0
0.343658 0.476102 0
0.334729 0.477565 0
0.330579 0.47302 0
0.332974 0.464503 0
0.341073 0.463246 0
0.334729 0.477565 0
0.343658 0.476102 0
0.34749 0.479891 0
0.34583 0.488433 0
0.338893 0.49075 0
0.332727 0.48609 0
0.334729 0.477565 0
0.0065994 0.0699437 0
0.0105602 0.0552779 0
0.0214592 0.0616774 0
0.0172591 0.0692008 0
0.00786971 0.0707925 0
0.0065994 0.0699437 0
0 0.0542644 0
0.0100906 0.0542907 0
0.0105602 0.0552779 0
0.0065994 0.0699437 0
0 0.0699833 0
0 0.0542644 0
0.313558 0.484581 0
0.320261 0.482744 0
0.326354 0.488164 0
0.32437 0.495412 0
0.317126 0.498182 0
0.311151 0.492153 0
0.313558 0.484581 0
0.276511 0.963241 0
0.287761 0.958489 0
0.294353 0.969678 0
0.294266 0.969833 0
0.283222 0.974571 0
0.276499 0.969658 0
0.276511 0.963241 0
0.0268046 0.0615236 0
0.0254922 0.0605244 0
0.0272281 0.0521039 0
0.0289339 0.0498941 0
0.0362342 0.0499807 0
0.0397207 0.0555126 0
0.0377819 0.0615606 0
0.0268046 0.0615236 0
0.326354 0.488164 0
0.332727 0.48609 0
0.338893 0.49075 0
0.337245 0.499942 0
0.330888 0.501678 0
0.32437 0.495412 0
0.326354 0.488164 0
0.294266 0.969833 0
0.294353 0.969678 0
0.300532 0.967709 0
0.308926 0.971734 0
0.306675 0.983457 0
0.301985 0.985237 0
0.297794 0.984017 0
0.294266 0.969833 0
0.0105602 0.0552779 0
0.0100906 0.0542907 0
0.0120785 0.0493061 0
0.0272281 0.0521039 0
0.0254922 0.0605244 0
0.0214592 0.0616774 0
0.0105602 0.0552779 0
0.277822 0.986514 0
0.283019 0.984164 0
0.289964 0.987226 0
0.290265 1 0
0.27721 1 0
0.277822 0.986514 0
0.0440813 0.0332312 0
0.0499886 0.034951 0
0.0528998 0.0424193 0
0.0508553 0.0450543 0
0.0391074 0.0449094 0
0.0376405 0.0380081 0
0.0440813 0.0332312 0
0.338893 0.49075 0
0.34583 0.488433 0
0.351348 0.493162 0
0.350155 0.500995 0
0.342821 0.504264 0
0.337245 0.499942 0
0.338893 0.49075 0
0.297794 0.984017 0
0.301985 0.985237 0
0.302857 1 0
0.290265 1 0
0.289964 0.987226 0
0.297794 0.984017 0
0.0391074 0.0449094 0
0.0508553 0.0450543 0
0.0508265 0.0552795 0
0.0397207 0.0555126 0
0.0362342 0.0499807 0
0.0391074 0.0449094 0
0.344988 0.466659 0
0.352945 0.464949 0
0.357658 0.470082 0
0.355789 0.478274 0
0.34749 0.479891 0
0.343658 0.476102 0
0.344988 0.466659 0
0.301985 0.985237 0
0.306675 0.983457 0
0.314841 0.986935 0
0.313857 1 0
0.302857 1 0
0.301985 0.985237 0
0.0499886 0.034951 0
0.0558887 0.0289523 0
0.0612463 0.0297813 0
0.0644801 0.0328554 0
0.0645862 0.0337809 0
0.059034 0.0427675 0
0.0528998 0.0424193 0
0.0499886 0.034951 0
0.357658 0.470082 0
0.366416 0.467906 0
0.370339 0.472027 0
0.369396 0.480033 0
0.360154 0.482615 0
0.355789 0.478274 0
0.357658 0.470082 0
0.0508553 0.0450543 0
0.0528998 0.0424193 0
0.059034 0.0427675 0
0.0638279 0.049352 0
0.0548482 0.0576042 0
0.0530269 0.0575519 0
0.0508265 0.0552795 0
0.0508553 0.0450543 0
0.3128 0.942851 0
0.318183 0.938577 0
0.318979 0.938566 0
0.325348 0.943194 0
0.323056 0.95557 0
0.314712 0.956942 0
0.312988 0.955673 0
0.3128 0.942851 0
0.34749 0.479891 0
0.355789 0.478274 0
0.360154 0.482615 0
0.359321 0.490381 0
0.351348 0.493162 0
0.34583 0.488433 0
0.34749 0.479891 0
0.040504 0.0663643 0
0.0377819 0.0615606 0
0.0397207 0.0555126 0
0.0508265 0.0552795 0
0.0530269 0.0575519 0
0.0491286 0.0665541 0
0.040504 0.0663643 0
0.335316 0.931007 0
0.333883 0.941957 0
0.325348 0.943194 0
0.318979 0.938566 0
0.327914 0.925795 0
0.335316 0.931007 0
0.0523743 0.0723914 0
0.0491286 0.0665541 0
0.0530269 0.0575519 0
0.0548482 0.0576042 0
0.0638311 0.0659717 0
0.0589894 0.0722662 0
0.0523743 0.0723914 0
0.351348 0.493162 0
0.359321 0.490381 0
0.364224 0.494552 0
0.362627 0.504136 0
0.356862 0.506076 0
0.350155 0.500995 0
0.351348 0.493162 0
0.335316 0.931007 0
0.343186 0.928444 0
0.348591 0.934216 0
0.343689 0.94557 0
0.337772 0.945248 0
0.333883 0.941957 0
0.335316 0.931007 0
0.0548482 0.0576042 0
0.0638279 0.049352 0
0.0639045 0.0493694 0
0.0706588 0.0595358 0
0.0654957 0.0657011 0
0.0638311 0.0659717 0
0.0548482 0.0576042 0
0.0748794 0.0269106 0
0.0685099 0.0150909 0
0.076563 0.0122545 0
0.0807033 0.0139579 0
0.0819155 0.0254895 0
0.0782291 0.0276909 0
0.0748794 0.0269106 0
0.360154 0.482615 0
0.369396 0.480033 0
0.373969 0.484478 0
0.372258 0.492747 0
0.364224 0.494552 0
0.359321 0.490381 0
0.360154 0.482615 0
0.323056 0.95557 0
0.328719 0.959441 0
0.325891 0.970646 0
0.320447 0.971747 0
0.314841 0.969163 0
0.314712 0.956942 0
0.323056 0.95557 0
0.0680504 0.0149844 0
0.0658273 0 0
0.0767004 0 0
0.076563 0.0122545 0
0.0685099 0.0150909 0
0.0680504 0.0149844 0
0.325348 0.943194 0
0.333883 0.941957 0
0.337772 0.945248 0
0.332919 0.958547 0
0.328719 0.959441 0
0.323056 0.95557 0
0.325348 0.943194 0
0.385019 0.373923 0
0.391066 0.376668 0
0.392589 0.383987 0
0.384007 0.38947 0
0.378712 0.386133 0
0.378462 0.378147 0
0.385019 0.373923 0
0.0876451 0.0114276 0
0.0863962 0 0
0.0989574 0 0
0.098144 0.00995136 0
0.0910474 0.0130201 0
0.0876451 0.0114276 0
0.0807033 0.0139579 0
0.0876451 0.0114276 0
0.0910474 0.0130201 0
0.0923475 0.0224657 0
0.0879456 0.0263487 0
0.0819155 0.0254895 0
0.0807033 0.0139579 0
0.337772 0.945248 0
0.343689 0.94557 0
0.346945 0.948807 0
0.346465 0.960139 0
0.341042 0.962954 0
0.332919 0.958547 0
0.337772 0.945248 0
0.391066 0.376668 0
0.398387 0.371014 0
0.404808 0.374059 0
0.405325 0.381643 0
0.39763 0.386681 0
0.392589 0.383987 0
0.391066 0.376668 0
0.076563 0.0122545 0
0.0767004 0 0
0.0863962 0 0
0.0876451 0.0114276 0
0.0807033 0.0139579 0
0.076563 0.0122545 0
0.39763 0.386681 0
[...]
CELL_DATA 6400
FIELD FieldData 3
weight 1 6400 float
 0.0527334 0.0528086 0.0529062 0.0529524 0.0528443 0.0528933 0.0527784 0.0530165 0.0530289 0.0530741 0.0532065 0.0544784 0.0530816 0.0532477 0.0532913 0.0544839 0.0531966 0.0532094 0.054427 0.0531414 0.054454 0.0531267 0.0532394 0.0544856 0.0533236 0.0532414 0.052877 0.0543538 0.052954 0.0531798 0.0530426 0.05432 0.053137 0.0543948 0.0543846 0.0530301 0.0529276 0.05431 0.0502734 0.0531817 0.0543437 0.050169 0.0530504 0.0498507 0.0532506 0.0543728 0.0498875 0.0532815 0.0544243 0.0499254 0.0533413 0.0544551 0.0533825 0.0506745 0.054413 0.053313 0.050906 0.0534246 0.0544041 0.0509157 0.0534802 0.0534745 0.0544455 0.0504253 0.0533764 0.0506789 0.0544243 0.0535548 0.0535568 0.050647 0.0544321 0.0534698 0.0544536 0.0534961 0.0508794 0.0534166 0.0544284 0.0509802 0.0535846 0.0544454 0.0536651 0.0544695 0.050675 0.0536452 0.0544405 0.0536495 0.0507428 0.0537982 0.0544623 0.0501738 0.0537241 0.0501666 0.0537356 0.0544487 0.0538134 0.0504118 0.0544615 0.0538086 0.0544815 0.0499462 0.0535397 0.0544806 0.0501825 0.0534633 0.0544955 0.053682 0.049973 0.0544541 0.0536005 0.0502682 0.0544844 0.053586 0.0504258 0.0536481 0.0544793 0.0503097 0.0537133 0.0544677 0.0538564 0.050506 0.0545088 0.0537948 0.0500285 0.0544945 0.0537573 0.0500497 0.0544972 0.0500886 0.0539209 0.0519216 0.0518255 0.054512 0.0539523 0.0545121 0.0519062 0.0538264 0.0545233 0.0516585 0.0539053 0.0545441 0.0517557 0.0545311 0.0539867 0.0529615 0.0517356 0.0544666 0.0530743 0.0519585 0.0544793 0.0531408 0.0530118 0.0520339 0.0544631 0.0530536 0.0531607 0.0517845 0.0545033 0.0531835 0.0544868 0.0518692 0.0532521 0.0545184 0.0532266 0.0517207 0.0533382 0.0544695 0.0513185 0.0534505 0.0514818 0.05328 0.0544699 0.0533527 0.0515715 0.0545168 0.0534168 0.0514006 0.0544908 0.0535017 0.0544962 0.0530971 0.0510796 0.0530339 0.051272 0.0531825 0.0545217 0.0532725 0.0512209 0.0545261 0.0530548 0.054548 0.051581 0.0531237 0.0545223 0.0532075 0.0516227 0.0533611 0.0545499 0.0515001 0.0535062 0.0545698 0.0513955 0.0534378 0.0545684 0.0545478 0.0513052 0.0533204 0.0545406 0.0533139 0.0519525 0.054545 0.053503 0.0520078 0.053422 0.0545713 0.0518238 0.0535354 0.0545664 0.0536474 0.0518437 0.0545878 0.0537194 0.0520994 0.0535785 0.054591 0.0536624 0.0545754 0.0537217 0.0520939 0.0538922 0.0545017 0.0520005 0.0538148 0.0544958 0.0519264 0.0539784 0.0545366 0.0539057 0.051795 0.0545127 0.0538045 0.0545095 0.0538966 0.0518613 0.0545322 0.0538187 0.0515901 0.0545335 0.0540467 0.0545521 0.0516388 0.054555 0.0539814 0.0513303 0.0536722 0.0545629 0.0535876 0.0545468 0.0538132 0.0537493 0.0535843 0.0536731 0.0535893 0.0537909 0.0537392 0.0538924 0.0539613 0.0539686 0.0531082 0.053943 0.0514264 0.0538757 0.0545781 0.0531243 0.0514399 0.0530485 0.0545692 0.0540283 0.0545647 0.0529733 0.0516868 0.0538856 0.053056 0.0544835 0.0538985 0.0515018 0.0545067 0.0539793 0.053038 0.0516238 0.0540538 0.0545308 0.053113 0.0539691 0.0529803 0.051464 0.0539847 0.054471 0.0529174 0.0539169 0.0512917 0.0528169 0.054495 0.0540686 0.0528739 0.0513294 0.0545269 0.0541233 0.0529085 0.054051 0.0545504 0.0512294 0.0528039 0.0541953 0.0545654 0.0528556 0.050865 0.0541357 0.0530807 0.0545439 0.0510674 0.0541407 0.0530144 0.0545168 0.0529654 0.0542196 0.0507919 0.0542125 0.0545619 0.0530579 0.0505503 0.0540101 0.0529436 0.0545312 0.0508317 0.0540932 0.0529877 0.0511424 0.0540775 0.0545763 0.0509896 0.0541572 0.0529001 0.0545806 0.0545988 0.0528452 0.0509112 0.0540279 0.0527954 0.0545843 0.0510922 0.0528363 0.0545926 0.0540909 0.0545917 0.050696 0.0528852 0.0541551 0.0546 0.0542245 0.0528906 0.0546022 0.0508494 0.0541604 0.0528321 0.0545904 0.0506602 0.0542991 0.0527917 0.0505546 0.0546048 0.0542968 0.0503391 0.0542292 0.0546054 0.0540913 0.0505593 0.0542272 0.0546116 0.0500969 0.0540512 0.0542937 0.0546101 0.0501262 0.0545801 0.0539846 0.0543652 0.0503396 0.0545929 0.0542846 0.053989 0.0503399 0.0545919 0.0542708 0.0504618 0.0543634 0.0540889 0.0545775 0.0543381 0.0504173 0.0539912 0.0545879 0.0543621 0.0501391 0.0540439 0.0502131 0.0542934 0.0545922 0.0539308 0.0501826 0.0544436 0.0546071 0.0544353 0.0538695 0.0511095 0.0546055 0.0544106 0.0539338 0.0511624 0.0546133 0.0544253 0.0538688 0.0544945 0.0546004 0.0508691 0.0538164 0.0540727 0.0545545 0.0508706 0.0545873 0.0544824 0.0541115 0.0510761 0.0544894 0.0540097 0.0545966 0.0510783 0.054505 0.0540561 0.0551502 0.0508717 0.0545438 0.0540941 0.0551134 0.0507152 0.0546113 0.0551555 0.0540509 0.0543757 0.0551459 0.050885 0.0540117 0.0551163 0.0543637 0.050411 0.0539396 0.0544419 0.0506308 0.0551995 0.0538221 0.0544309 0.0538765 0.0506466 0.055179 0.0544176 0.0539216 0.0551907 0.0506346 0.0544821 0.0539651 0.0551745 0.0504193 0.0544965 0.053885 0.0551416 0.0502117 0.0545021 0.0551131 0.0538323 0.0502168 0.0551327 0.0546353 0.0550776 0.0538084 0.0505056 0.0550996 0.0545599 0.053745 0.0505228 0.0551692 0.054596 0.0551649 0.0536837 0.0502673 0.0545596 0.0551794 0.0537498 0.0502553 0.0545372 0.055167 0.0502843 0.0538078 0.0551477 0.0545947 0.053684 0.0552108 0.054641 0.0536201 0.0545805 0.0552012 0.0535496 0.0540644 0.0545569 0.0551836 0.0545234 0.0541902 0.0545496 0.0534864 0.0551791 0.0541457 0.0545312 0.0535525 0.0540766 0.0551994 0.0545621 0.053614 0.0542151 0.0551803 0.054547 0.053622 0.0541592 0.0551978 0.0542949 0.0551941 0.0534833 0.0545518 0.0551808 0.0542718 0.0537525 0.0545106 0.0551702 0.0543539 0.0536802 0.0551798 0.0551702 0.0545367 0.0536788 0.0543879 0.0545224 0.0551618 0.0537587 0.0543349 0.055164 0.0544634 0.0536844 0.0542879 0.0551093 0.0536116 0.0542323 0.0544764 0.0550602 0.0535493 0.0550803 0.0544462 0.0543589 0.055039 0.0534834 0.0551254 0.0541135 0.0544023 0.05347 0.0551555 0.0543832 0.0540429 0.0535475 0.0551317 0.0541774 0.0536157 0.0544189 0.0551065 0.0545007 0.0550073 0.0534582 0.0540904 0.0544661 0.0550604 0.0541114 0.0544769 0.055025 0.0540985 0.0541709 0.0544076 0.0550013 0.0540605 0.0542931 0.0543578 0.0549712 0.0540186 0.0542365 0.0544139 0.0551092 0.0540597 0.0543497 0.0550751 0.054523 0.0539897 0.0543765 0.0550397 0.0545165 0.0551517 0.0539731 0.0542766 0.0544837 0.05391 0.0551555 0.0544471 0.0542188 0.0551347 0.0544818 0.0538567 0.054303 0.0551254 0.053931 0.0544853 0.0543428 0.0551467 0.0539601 0.0544743 0.0544465 0.0538906 0.0551153 0.0545074 0.055131 0.0544581 0.0538315 0.0545463 0.0551072 0.0544836 0.054434 0.0540115 0.0550737 0.0544251 0.0544445 0.0545202 0.0540675 0.0550776 0.0543928 0.0545645 0.0551015 0.0540119 0.0544318 0.0551164 0.0546154 0.054432 0.0544034 0.0550638 0.0540425 0.054376 0.0546603 0.0550932 0.0543689 0.053916 0.0546533 0.0551425 0.0543105 0.0545995 0.0551645 0.0539741 0.0542927 0.0545743 0.0543559 0.0551659 0.0546248 0.0539444 0.0543975 0.0544629 0.055144 0.0539515 0.0544029 0.0543373 0.0538505 0.0551262 0.0544932 0.0542836 0.0538855 0.0550882 0.054343 0.0544072 0.0538692 0.0551153 0.0542737 0.0544377 0.0551383 0.0538004 0.0544612 0.0543107 0.0551327 0.0538153 0.0545134 0.0551082 0.0543573 0.0537721 0.0545988 0.0550793 0.0542934 0.0537977 0.0545419 0.0550554 0.0543217 0.0550697 0.053645 0.0546148 0.05419 0.0551043 0.0537173 0.0546465 0.0542232 0.0537902 0.0542213 0.0550096 0.0545271 0.0537361 0.054345 0.0550444 0.0545648 0.0536556 0.0549934 0.0542842 0.053576 0.0545696 0.0550435 0.0542655 0.053521 0.0541816 0.0535837 0.0549606 0.0541997 0.0546195 0.0535097 0.0542352 0.0549483 0.0531313 0.0535087 0.0549951 0.0541439 0.053138 0.0550385 0.0534441 0.0530617 0.0540926 0.0549915 0.0537149 0.0532342 0.0541616 0.0550272 0.0531233 0.0537697 0.0530625 0.0549454 0.0536606 0.0539896 0.0549869 0.0532115 0.0540516 0.0537475 0.0549415 0.0533189 0.0540644 0.0536989 0.0551058 0.0534318 0.0539761 0.0551216 0.0536203 0.0541204 0.0535201 0.0550917 0.0536442 0.0540861 0.0551093 0.0534137 0.0535897 0.0550713 0.0541247 0.0533691 0.0535833 0.0550379 0.0539523 0.0532873 0.0550712 0.0535079 0.0550565 0.0534519 0.0540166 0.0534428 0.0550932 0.0531176 0.0539958 0.0530521 0.0535633 0.055044 0.054306 0.0532025 0.0550767 0.0535002 0.0542408 0.0531953 0.0550443 0.0542292 0.0531031 0.0550341 0.0534361 0.0541665 0.0530406 0.0550082 0.0534137 0.0541597 0.0531979 0.0550127 0.0542056 0.0532841 0.0534059 0.0550143 0.0532685 0.0549911 0.0541991 0.0533351 0.0533655 0.0550115 0.0540369 0.0532563 0.0549627 0.0534495 0.053394 0.0549419 0.0532743 0.0533225 0.0533513 0.0548961 0.0532664 0.0534232 0.0549637 0.0532317 0.0536236 0.0549365 0.053157 0.0549444 0.0537148 0.0531446 0.0549899 0.0535305 0.0530801 0.0549625 0.0535392 0.0532115 0.0548914 0.0536159 0.0530824 0.0549119 0.0537001 0.0531354 0.053752 0.0549172 0.0533296 0.0537853 0.0533302 0.0548716 0.0538577 0.0549404 0.0534052 0.0549326 0.0532526 0.0549694 0.054001 0.0534043 0.054904 0.0539772 0.0532617 0.0550091 0.0538971 0.0533286 0.0550507 0.0531842 0.0538617 0.0550051 0.0541364 0.0531021 0.0549664 0.0538354 0.0541164 0.0548524 0.0531936 0.0548608 0.0531766 0.0539363 0.0540233 0.0548004 0.0531031 0.0540877 0.0535856 0.0548101 0.0549082 0.0540023 0.0536897 0.0530362 0.0549324 0.0540832 0.0536686 0.0529793 0.05489 0.053522 0.0539291 0.0548684 0.0529302 0.054028 0.0535201 0.0550369 0.0530226 0.0539722 0.0536102 0.0530108 0.0549693 0.0539071 0.0536459 0.0549915 0.0529429 0.0540599 0.0550171 0.0537856 0.0528879 0.0539413 0.0538176 0.0528362 0.0550488 0.0539449 0.0527861 0.0539026 0.0550311 0.0527844 0.0538364 0.0550015 0.0537769 0.0528857 0.0538565 0.0549855 0.0527889 0.0537335 0.054958 0.0528329 0.0544141 0.0538633 0.0549315 0.0530617 0.054918 0.0530755 0.0529917 0.0543942 0.0530258 0.0548851 0.0529396 0.0543409 0.0531654 0.0549519 0.0530433 0.0543229 0.0530568 0.0549159 0.0529816 0.0529881 0.0547586 0.054363 0.0529305 0.0530088 0.0547516 0.0528393 0.0543832 0.054652 0.0531379 0.0528854 0.0547065 0.0543042 0.0527969 0.054706 0.053332 0.0543136 0.0528793 0.053232 0.0548389 0.0528423 0.0542416 0.0548324 0.0534354 0.0528024 0.0542876 0.0547868 0.0533728 0.0542767 0.0547411 0.0534425 0.0532904 0.0542316 0.0547847 0.0533841 0.053198 0.0546442 0.0541967 0.0533039 0.0545856 0.0533872 0.0543294 0.053373 0.0545198 0.0532817 0.0542669 0.053376 0.0546009 0.0529568 0.0542559 0.0546937 0.0533007 0.0542606 0.0530206 0.0532465 0.0546432 0.0541945 0.0531082 0.0531851 0.0530806 0.0531397 0.0541971 0.0532323 0.0529318 0.0545876 0.0531183 0.0541228 0.0530061 0.0531657 0.0548782 0.0541928 0.0530739 0.0548403 0.0533829 0.0541818 0.0531752 0.0548333 0.0541359 0.0533001 0.0547928 0.053364 0.0541216 0.0533061 0.054792 0.0540552 0.0548845 0.0533713 0.0540636 0.0548351 0.0532736 0.0547917 0.0532912 0.0531694 0.0542572 0.0546975 0.0532253 0.0531958 0.0532353 0.054182 0.0547438 0.0547448 0.054167 0.0530993 0.0532921 0.0546459 0.0535705 0.0530963 0.0542081 0.0547482 0.0531533 0.053476 0.0546994 0.054131 0.0532276 0.0536243 0.0546491 0.0541422 0.0531754 0.0536911 0.0546972 0.0535126 0.0531105 0.0540228 0.0550189 0.0534553 0.0530357 0.0549737 0.0535946 0.0540655 0.0530818 0.0549881 0.0535639 0.054954 0.0540917 0.0529639 0.0537486 0.0549899 0.0540974 0.0530336 0.0549554 0.0537986 0.0540496 0.053013 0.0549727 0.0538363 0.0529592 0.0539728 0.0549596 0.0540311 0.0536666 0.0529222 0.0549338 0.0541164 0.0537122 0.0528981 0.0549024 0.0540813 0.0528028 0.0537467 0.0549138 0.0540032 0.0528019 0.0534015 0.0549223 0.0528512 0.0539651 0.0535408 0.0548864 0.0529056 0.053943 0.0535005 0.0539594 0.0528532 0.0548867 0.0540461 0.052807 0.0533662 0.0549281 0.0540015 0.053464 0.0530388 0.0549242 0.0539135 0.0549168 0.0529718 0.0539214 0.0534946 0.054891 0.0529757 0.0538653 0.0536015 0.0548472 0.0530337 0.0541212 0.0536528 0.0548706 0.054111 0.0536959 0.0529753 0.0548285 0.0540289 0.0529195 0.0537725 0.0548876 0.0540287 0.0528057 0.0548756 0.0535851 0.0539359 0.0548481 0.0528599 0.0540534 0.0548479 0.0528574 0.0539875 0.0548335 0.0537007 0.0529089 0.0548152 0.0528695 0.0539784 0.0536779 0.0547989 0.0528005 0.0539559 0.0540649 0.0547757 0.0539004 0.0527904 0.0538662 0.0541468 0.0548613 0.0528436 0.0548489 0.0539388 0.054171 0.0548175 0.0529069 0.0540574 0.0528948 0.0540267 0.0538293 0.0548127 0.0528282 0.0541355 0.0539336 0.0548508 0.0527711 0.054103 0.0548068 0.0527489 0.0538321 0.0542311 0.0547788 0.0528857 0.0543277 0.0547448 0.0537219 0.0529699 0.0547727 0.0542997 0.0538271 0.0530449 0.0547003 0.0529573 0.0543638 0.0537205 0.0547529 0.0538508 0.0541873 0.054728 0.0530217 0.0537468 0.0542712 0.0547065 0.0530412 0.0542096 0.0537807 0.0527281 0.0546766 0.0542561 0.0537371 0.0528642 0.0548146 0.053979 0.0536348 0.0528174 0.054779 0.054022 0.0526864 0.0547772 0.0538842 0.0541007 0.0527333 0.0538616 0.0547356 0.0539905 0.0527947 0.053807 0.0547503 0.0527873 0.0539185 0.0537535 0.0528966 0.0547041 0.0539438 0.0538318 0.054747 0.0540726 0.0529387 0.0538433 0.0546888 0.054057 0.0530311 0.0547151 0.0537516 0.0541527 0.0529922 0.0546754 0.0542168 0.0528307 0.0546818 0.0542689 0.0528954 0.0547296 0.0529396 0.0541356 0.0546537 0.0529778 0.0541774 0.0546489 0.0542081 0.0548985 0.0544197 0.0537327 0.0548507 0.0544808 0.0537586 0.054902 0.0544266 0.0536733 0.0548502 0.0543766 0.053633 0.0543755 0.0547756 0.0536555 0.0543166 0.0548393 0.0537031 0.0544273 0.0547862 0.0536639 0.0548965 0.0545223 0.0536291 0.0548439 0.054478 0.0535972 0.0549011 0.0535498 0.0545782 0.0547961 0.0544716 0.0548478 0.0534948 0.0545087 0.0547905 0.0535092 0.0545437 0.05355 0.0547239 0.0543205 0.0547294 0.053539 0.0543636 0.054688 0.0543776 0.053528 0.0547466 0.0542559 0.0534392 0.0546457 0.0542504 0.0546791 0.0534237 0.0543138 0.0546251 0.0543132 0.0538935 0.0546917 0.054457 0.0547472 0.0538594 0.0544208 0.0546913 0.0547394 0.0539551 0.054495 0.0546448 0.0537728 0.0544449 0.0546398 0.0543975 0.0546372 0.0538353 0.0543533 0.0537586 0.0548541 0.0544021 0.0539087 0.0548367 0.0538788 0.0544356 0.0548795 0.0538451 0.0538781 0.0547884 0.0538024 0.0540375 0.0548237 0.0537423 0.053955 0.0547827 0.0537723 0.0548517 0.0538231 0.0539052 0.0536635 0.0548425 0.0539788 0.0548017 0.0537148 0.0541065 0.0536538 0.0547687 0.0541305 0.0547475 0.0535662 0.0542032 0.0536159 0.0547883 0.0540663 0.0535506 0.0547405 0.054062 0.0546944 0.053703 0.0539941 0.0547352 0.0536101 0.0541335 0.0546461 0.0536378 0.0538462 0.0546891 0.0536625 0.0546403 0.0538542 0.0535124 0.0547081 0.0539369 0.0546768 0.0535693 0.0539176 0.0535344 0.0546957 0.053771 0.0546247 0.0538697 0.054607 0.0537874 0.0537969 0.0546451 0.0538061 0.0538658 0.0546539 0.0540078 0.0536961 0.0540824 0.0545967 0.0537237 0.0540213 0.0537417 0.0545859 0.0539463 0.0536434 0.0539655 0.053755 0.0545048 0.0540392 0.0545371 0.0536409 0.0542536 0.0536393 0.0545309 0.0541893 0.0545627 0.0535378 0.0543059 0.0535906 0.0546031 0.0541494 0.0545577 0.05362 0.0542026 0.0535094 0.0545944 0.0542515 0.053491 0.0545221 0.0542196 0.0534665 0.0545487 0.0543479 0.0534073 0.0535338 0.05451 0.0543729 0.053435 0.054459 0.0543874 0.0535404 0.0542755 0.0534335 0.0544923 0.0543335 0.0534126 0.0544891 0.0542921 0.0530933 0.0533285 0.0543252 0.0544386 0.0541612 0.0531253 0.0534675 0.0540966 0.0544319 0.0535185 0.0541074 0.0531621 0.0544563 0.0534608 0.0541742 0.0532135 0.0544275 0.0534198 0.0540468 0.0530889 0.0544521 0.0533703 0.0541156 0.0544798 0.0531702 0.0533672 0.0541682 0.0544704 0.0531882 0.0534107 0.0542252 0.0544433 0.0534427 0.0533248 0.0542247 0.0544179 0.0533839 0.0542756 0.0532873 0.0533473 0.0544095 0.0542699 0.0533018 0.0545478 0.0533832 0.0533245 0.0543078 0.0545948 0.0532711 0.0541758 0.0532708 0.0545923 0.0532401 0.0532718 0.0545028 0.0542219 0.0533415 0.0532199 0.0545405 0.0545455 0.0545009 0.0533573 0.0545355 0.0531494 0.0546158 0.053116 0.0545842 0.054645 0.0531347 0.0531814 0.0546641 0.0545584 0.0530545 0.0545968 0.0531432 0.0545709 0.0546634 0.0544927 0.0532997 0.0529927 0.0532595 0.0544987 0.0530742 0.054609 0.0531909 0.0544844 0.0532068 0.0547553 0.0531956 0.0545252 0.0547052 0.0532795 0.0531116 0.0544343 0.0547186 0.0532865 0.0544615 0.0546986 0.0531015 0.0531409 0.054461 0.0547484 0.0533922 0.0547485 0.0531476 0.0544039 0.0533061 0.0547985 0.0532096 0.054428 0.0532086 0.0548355 0.0532155 0.0543996 0.0532983 0.0547776 0.0525631 0.0544272 0.0532102 0.0546731 0.0526945 0.0544627 0.0533055 0.0547611 0.0526222 0.0544425 0.0547083 0.0532117 0.0527401 0.0547207 0.0544547 0.0524942 0.0533112 0.0526235 0.0546976 0.0544262 0.0532033 0.0527126 0.0531047 0.054683 0.0526103 0.0543982 0.0532059 0.0547429 0.0528121 0.0531243 0.054776 0.0544185 0.0529079 0.0531218 0.0547995 0.0547672 0.0528317 0.0548433 0.0531087 0.0527246 0.0548407 0.05482 0.0527833 0.0530303 0.0548039 0.054789 0.0525073 0.0548053 0.053042 0.0524108 0.0548029 0.0548374 0.0531135 0.0524598 0.0547314 0.0548798 0.0526058 0.0547157 0.0530071 0.0548287 0.0522415 0.0546988 0.0547656 0.0529392 0.0523465 0.0547498 0.054891 0.0530357 0.054729 0.052433 0.0548234 0.0525562 0.0548126 0.0547767 0.0528959 0.054885 0.0526632 0.054757 0.0549188 0.0527273 0.0537316 0.054693 0.0548784 0.0547371 0.0524714 0.0536169 0.0549112 0.0547056 0.054874 0.05267 0.0536158 0.0546761 0.0549864 0.0526035 0.0546323 0.0535237 0.0549627 0.0529039 0.0546798 0.054932 0.0535251 0.0546665 0.0549691 0.052999 0.0535243 0.0549338 0.0530736 0.0545929 0.053623 0.0550026 0.0546204 0.0529994 0.0548988 0.0535113 0.0529122 0.0545799 0.0548829 0.0534209 0.0546483 0.0528232 0.0549248 0.0533241 0.0546401 0.0549001 0.0529637 0.0534159 0.0546269 0.054926 0.0530619 0.0534236 0.0546023 0.0549317 0.0531225 0.0534273 0.0545686 0.0549594 0.054556 0.0549609 0.0533336 0.0532027 0.0545895 0.0533166 0.0550344 0.0530222 0.0545528 0.0532475 0.0550369 0.0530924 0.0533231 0.0547258 0.0550067 0.0527677 0.0533152 0.0546802 0.0549915 0.0528659 0.0532178 0.0549615 0.0546933 0.0532152 0.0549963 0.0526931 0.0546594 0.0528105 0.053099 0.0550295 0.0546488 0.0532088 0.0527539 0.0546967 0.0546013 0.0529218 0.0534317 0.0547674 0.0546323 0.0547776 0.0530197 0.0546587 0.0533858 0.0547365 0.0529664 0.0533955 0.0546042 0.0527847 0.0532872 0.0546769 0.0546395 0.0528557 0.0532816 0.0546946 0.0545997 0.0547228 0.052889 0.0533297 0.0547395 0.0546102 0.0534846 0.0548192 0.0545655 0.0532062 0.0548442 0.0534542 0.054556 0.0533235 0.0548625 0.0546134 0.0532343 0.0545824 0.0547824 0.0535248 0.0545617 0.0548076 0.0531087 0.0535562 0.0545779 0.0548131 0.0531854 0.0545314 0.0534157 0.054659 0.0531728 0.0545061 0.0547035 0.0534333 0.0545313 0.0530933 0.0547463 0.0545449 0.0535054 0.0529456 0.0546646 0.0545092 0.0530601 0.0536282 0.0547129 0.0531306 0.0545128 0.0547807 0.0536779 0.0544924 0.053003 0.0548139 0.053701 0.0544772 0.0547828 0.0536032 0.0529677 0.0544558 0.0547365 0.0535681 0.0530433 0.0544438 0.0536363 0.0547032 0.0529188 0.054752 0.0533615 0.0545446 0.0528799 0.0533735 0.0547701 0.0545121 0.0534411 0.0532246 0.0548804 0.0545005 0.0534474 0.053133 0.0548996 0.0545329 0.0531604 0.0549205 0.0532992 0.0544692 0.0531283 0.0549422 0.0544859 0.0532892 0.0544571 0.0530381 0.0548507 0.0533788 0.0545187 0.0548912 0.0530589 0.053504 0.0544972 0.0549253 0.0529625 0.0535581 0.0549582 0.0545264 0.0535669 0.0531003 0.0544692 0.054978 0.0530357 0.0534771 0.0544752 0.0550254 0.0529442 0.0544472 0.0534617 0.0528604 0.0550134 0.0544325 0.0535332 0.0544124 0.0549918 0.0530357 0.0537542 0.0549584 0.0529604 0.0544113 0.0537687 0.0529314 0.0549612 0.0543892 0.0538932 0.0549947 0.0544273 0.0528272 0.054815 0.0544059 0.0538357 0.0548508 0.054444 0.0529423 0.0538109 0.0548915 0.0544068 0.0528743 0.0548528 0.0537107 0.054385 0.0528368 0.0548096 0.0537685 0.0543824 0.0528457 0.0548071 0.0539349 0.0527621 0.0548483 0.0543609 0.0549281 0.0539709 0.0527259 0.0545012 0.0548924 0.054476 0.0538558 0.0526643 0.0549217 0.0544568 0.0539175 0.05445 0.052977 0.0549437 0.0538936 0.0544219 0.0529662 0.0548262 0.0543778 0.0536551 0.0528399 0.0544026 0.0548768 0.053707 0.054429 0.0528561 0.0548962 0.0536111 0.0544233 0.0528753 0.0536551 0.0548498 0.0527729 0.0543952 0.0538091 0.0550225 0.0544054 0.0528197 0.0537445 0.0549623 0.0549872 0.0538335 0.052781 0.0543369 0.0550596 0.0527162 0.0538677 0.0543773 0.0550289 0.052683 0.0543808 0.0536857 0.0550684 0.0527483 0.0543562 0.0550924 