# vtk DataFile Version 3.0
vtk output
ASCII
DATASET UNSTRUCTURED_GRID
POINTS 44494 float
0.0122142 0 0
0.0197081 0 0
0.0194618 0.0143468 0
0.0147209 0.0164324 0
0.0089834 0.012786 0
0.0122142 0 0
0.848815 0.416104 0
0.843501 0.42472 0
0.841057 0.425415 0
0.832562 0.417205 0
0.835465 0.41021 0
0.838223 0.408778 0
0.848815 0.416104 0
0 0.0133318 0
0.0089834 0.012786 0
0.0147209 0.0164324 0
0.0127766 0.0240278 0
0 0.0228902 0
0 0.0133318 0
0 0 0
0.0122142 0 0
0.0089834 0.012786 0
0 0.0133318 0
0 0 0
0.810806 0.416059 0
0.812968 0.413527 0
0.819189 0.41205 0
0.826642 0.419519 0
0.824673 0.424333 0
0.81549 0.42747 0
0.810806 0.416059 0
0.0226827 0.0152243 0
0.0303636 0.0112279 0
0.0353975 0.0133167 0
0.036005 0.0235284 0
0.0270093 0.0260424 0
0.0226827 0.0152243 0
0.0197081 0 0
0.0286504 0 0
0.0303636 0.0112279 0
0.0226827 0.0152243 0
0.0194618 0.0143468 0
0.0197081 0 0
0.819204 0.439313 0
0.814354 0.429572 0
0.81549 0.42747 0
0.824673 0.424333 0
0.829932 0.431851 0
0.825929 0.438939 0
0.819204 0.439313 0
0.394925 0.427079 0
0.394997 0.421737 0
0.403563 0.416645 0
0.410556 0.422557 0
0.410711 0.426986 0
0.402296 0.432289 0
0.394925 0.427079 0
0.0286504 0 0
0.0408831 0 0
0.0413079 0.00983989 0
0.0353975 0.0133167 0
0.0303636 0.0112279 0
0.0286504 0 0
0.826642 0.419519 0
0.832562 0.417205 0
0.841057 0.425415 0
0.837707 0.430961 0
0.829932 0.431851 0
0.824673 0.424333 0
0.826642 0.419519 0
0 0.0228902 0
0.0127766 0.0240278 0
0.0128403 0.0241512 0
0.00854545 0.0361724 0
0 0.0362817 0
0 0.0228902 0
0.387364 0.432381 0
0.394925 0.427079 0
0.402296 0.432289 0
0.402195 0.440054 0
0.389245 0.441647 0
0.388595 0.441027 0
0.387364 0.432381 0
0.0111113 0.0382175 0
0.00854545 0.0361724 0
0.0128403 0.0241512 0
0.0243118 0.0298907 0
0.0243258 0.0300572 0
0.0187836 0.0381928 0
0.0111113 0.0382175 0
0.849115 0.399881 0
0.853982 0.408702 0
0.849662 0.415831 0
0.848815 0.416104 0
0.838223 0.408778 0
0.840531 0.402798 0
0.849115 0.399881 0
0.412745 0.406493 0
0.419444 0.412396 0
0.419471 0.416068 0
0.410556 0.422557 0
0.403563 0.416645 0
0.4038 0.41175 0
0.412745 0.406493 0
0.0127766 0.0240278 0
0.0147209 0.0164324 0
0.0194618 0.0143468 0
0.0226827 0.0152243 0
0.0270093 0.0260424 0
0.0243118 0.0298907 0
0.0128403 0.0241512 0
0.0127766 0.0240278 0
0.410711 0.426986 0
0.410556 0.422557 0
0.419471 0.416068 0
0.42704 0.422711 0
0.427086 0.42649 0
0.416501 0.43169 0
0.410711 0.426986 0
0.874161 0.408455 0
0.87736 0.417623 0
0.872669 0.422539 0
0.863895 0.419878 0
0.864255 0.40827 0
0.874161 0.408455 0
0.0243118 0.0298907 0
0.0270093 0.0260424 0
0.036005 0.0235284 0
0.0369931 0.0241258 0
0.0396684 0.0344326 0
0.0347632 0.0382526 0
0.0340342 0.0383188 0
0.0243258 0.0300572 0
0.0243118 0.0298907 0
0.419444 0.412396 0
0.428142 0.406503 0
0.434059 0.40961 0
0.435117 0.416285 0
0.42704 0.422711 0
0.419471 0.416068 0
0.419444 0.412396 0
0.853982 0.408702 0
0.863481 0.407537 0
0.864255 0.40827 0
0.863895 0.419878 0
0.859544 0.422668 0
0.849662 0.415831 0
0.853982 0.408702 0
0.0413079 0.00983989 0
0.0408831 0 0
0.0538693 0 0
0.0521711 0.0110707 0
0.0478742 0.0128985 0
0.0413079 0.00983989 0
0.410711 0.426986 0
0.416501 0.43169 0
0.416905 0.440119 0
0.403331 0.441326 0
0.402195 0.440054 0
0.402296 0.432289 0
0.410711 0.426986 0
0.0521711 0.0110707 0
0.0538693 0 0
0.0630333 0 0
0.0635119 0.0126949 0
0.0597829 0.0148434 0
0.0521711 0.0110707 0
0.837707 0.430961 0
0.841057 0.425415 0
0.843501 0.42472 0
0.852728 0.432481 0
0.851991 0.436385 0
0.849894 0.438987 0
0.84264 0.440991 0
0.842482 0.440936 0
0.837707 0.430961 0
0.0353975 0.0133167 0
0.0413079 0.00983989 0
0.0478742 0.0128985 0
0.046948 0.0220413 0
0.0369931 0.0241258 0
0.036005 0.0235284 0
0.0353975 0.0133167 0
0.843501 0.42472 0
0.848815 0.416104 0
0.849662 0.415831 0
0.859544 0.422668 0
0.858444 0.427907 0
0.852728 0.432481 0
0.843501 0.42472 0
0.416501 0.43169 0
0.427086 0.42649 0
0.431044 0.43062 0
0.429179 0.440872 0
0.417624 0.440932 0
0.416905 0.440119 0
0.416501 0.43169 0
0.0396684 0.0344326 0
0.0369931 0.0241258 0
0.046948 0.0220413 0
0.0512475 0.0259822 0
0.0509184 0.031704 0
0.0459276 0.0349249 0
0.0396684 0.0344326 0
0.858444 0.427907 0
0.859544 0.422668 0
0.863895 0.419878 0
0.872669 0.422539 0
0.874209 0.4307 0
0.870077 0.434618 0
0.858444 0.427907 0
0.046948 0.0220413 0
0.0478742 0.0128985 0
0.0521711 0.0110707 0
0.0597829 0.0148434 0
0.0590437 0.0221251 0
0.0512475 0.0259822 0
0.046948 0.0220413 0
0.437305 0.37409 0
0.444441 0.367163 0
0.451303 0.371123 0
0.451763 0.378481 0
0.444813 0.383414 0
0.438894 0.381037 0
0.437305 0.37409 0
0.410027 0.878152 0
0.414167 0.877012 0
0.420551 0.881707 0
0.421816 0.887321 0
0.409314 0.895537 0
0.408615 0.895499 0
0.406263 0.891604 0
0.410027 0.878152 0
0.0509184 0.031704 0
0.0512475 0.0259822 0
0.0590437 0.0221251 0
0.0658289 0.0278576 0
0.065723 0.0313082 0
0.0602662 0.0361466 0
0.0599593 0.0362045 0
0.0509184 0.031704 0
0.444813 0.383414 0
0.451763 0.378481 0
0.459685 0.382551 0
0.460442 0.386783 0
0.453803 0.394007 0
0.446643 0.391578 0
0.444813 0.383414 0
0.747538 0.441419 0
0.749967 0.437629 0
0.762506 0.438597 0
0.763869 0.443246 0
0.760708 0.448907 0
0.752447 0.451354 0
0.747538 0.441419 0
0.421816 0.887321 0
0.42624 0.890607 0
0.425408 0.902993 0
0.420076 0.904785 0
0.409314 0.895537 0
0.421816 0.887321 0
0.0590437 0.0221251 0
0.0597829 0.0148434 0
0.0635119 0.0126949 0
0.0704238 0.0140694 0
0.0719093 0.0225072 0
0.0658289 0.0278576 0
0.0590437 0.0221251 0
0.431914 0.386245 0
0.438894 0.381037 0
0.444813 0.383414 0
0.446643 0.391578 0
0.440408 0.396789 0
0.433135 0.393927 0
0.431914 0.386245 0
0.762506 0.438597 0
0.763777 0.435605 0
0.7734 0.431712 0
0.778141 0.434094 0
0.779035 0.439175 0
0.773142 0.445501 0
0.763869 0.443246 0
0.762506 0.438597 0
0.0114342 0.0520551 0
0.00874226 0.0500899 0
0.0111113 0.0382175 0
0.0187836 0.0381928 0
0.0224602 0.0452806 0
0.0166986 0.0514923 0
0.0114342 0.0520551 0
0.433135 0.393927 0
0.440408 0.396789 0
0.441678 0.404228 0
0.434059 0.40961 0
0.428142 0.406503 0
0.426634 0.399025 0
0.433135 0.393927 0
0.42624 0.890607 0
0.433739 0.889578 0
0.440187 0.894974 0
0.435718 0.904541 0
0.431693 0.906024 0
0.425408 0.902993 0
0.42624 0.890607 0
0.773142 0.445501 0
0.779035 0.439175 0
0.788958 0.444691 0
0.789084 0.446336 0
0.783805 0.453856 0
0.776 0.45415 0
0.773142 0.445501 0
0 0.0362817 0
0.00854545 0.0361724 0
0.0111113 0.0382175 0
0.00874226 0.0500899 0
0 0.0501548 0
0 0.0362817 0
0.440408 0.396789 0
0.446643 0.391578 0
0.453803 0.394007 0
0.455524 0.399225 0
0.448972 0.407704 0
0.441678 0.404228 0
0.440408 0.396789 0
0.453803 0.394007 0
0.460442 0.386783 0
0.469735 0.3915 0
0.470224 0.393915 0
0.46493 0.402432 0
0.455524 0.399225 0
0.453803 0.394007 0
0.763869 0.443246 0
0.773142 0.445501 0
0.776 0.45415 0
0.773159 0.457799 0
0.766726 0.458608 0
0.760708 0.448907 0
0.763869 0.443246 0
0.36861 0.902073 0
0.376889 0.895581 0
0.384189 0.903485 0
0.380479 0.913816 0
0.373022 0.912444 0
0.36861 0.902073 0
0.0324831 0.0550789 0
0.0274799 0.0459622 0
0.0340342 0.0383188 0
0.0347632 0.0382526 0
0.0423486 0.0508937 0
0.0418407 0.0520818 0
0.0324831 0.0550789 0
0.475076 0.380037 0
0.475902 0.383517 0
0.469735 0.3915 0
0.460442 0.386783 0
0.459685 0.382551 0
0.466587 0.375359 0
0.475076 0.380037 0
0.0243258 0.0300572 0
0.0340342 0.0383188 0
0.0274799 0.0459622 0
0.0224602 0.0452806 0
0.0187836 0.0381928 0
0.0243258 0.0300572 0
0.754066 0.462931 0
0.750806 0.454463 0
0.752447 0.451354 0
0.760708 0.448907 0
0.766726 0.458608 0
0.763035 0.46336 0
0.754066 0.462931 0
0.384189 0.903485 0
0.393099 0.901231 0
0.395763 0.903013 0
0.393228 0.918113 0
0.393068 0.918191 0
0.381055 0.914604 0
0.380479 0.913816 0
0.384189 0.903485 0
0.0185462 0.0666328 0
0.0140933 0.0668777 0
0.00964009 0.0629955 0
0.0114342 0.0520551 0
0.0166986 0.0514923 0
0.0224795 0.0592124 0
0.0185462 0.0666328 0
0.766726 0.458608 0
0.773159 0.457799 0
0.778307 0.468911 0
0.777379 0.470699 0
0.766761 0.473265 0
0.763035 0.46336 0
0.766726 0.458608 0
0.485211 0.387574 0
0.492766 0.378399 0
0.502061 0.38709 0
0.494921 0.395103 0
0.486541 0.392573 0
0.485211 0.387574 0
0 0.0501548 0
0.00874226 0.0500899 0
0.0114342 0.0520551 0
0.00964009 0.0629955 0
0 0.0637189 0
0 0.0501548 0
0.408277 0.911911 0
0.400975 0.919386 0
0.393228 0.918113 0
0.395763 0.903013 0
0.403348 0.902535 0
0.408277 0.911911 0
0.773159 0.457799 0
0.776 0.45415 0
0.783805 0.453856 0
0.789108 0.463558 0
0.788191 0.46537 0
0.778307 0.468911 0
0.773159 0.457799 0
0.0166986 0.0514923 0
0.0224602 0.0452806 0
0.0274799 0.0459622 0
0.0324831 0.0550789 0
0.0316594 0.0568274 0
0.0224795 0.0592124 0
0.0166986 0.0514923 0
0.381055 0.914604 0
0.393068 0.918191 0
0.390006 0.930653 0
0.381668 0.931331 0
0.378459 0.927305 0
0.381055 0.914604 0
0.475076 0.380037 0
0.482036 0.371812 0
0.49273 0.377717 0
0.492766 0.378399 0
0.485211 0.387574 0
0.475902 0.383517 0
0.475076 0.380037 0
0.79355 0.439182 0
0.803767 0.44073 0
0.805604 0.443675 0
0.803609 0.450998 0
0.798998 0.453371 0
0.789084 0.446336 0
0.788958 0.444691 0
0.79355 0.439182 0
0.0185462 0.0666328 0
0.0224795 0.0592124 0
0.0316594 0.0568274 0
0.0340492 0.0645257 0
0.0246839 0.0718762 0
0.0185462 0.0666328 0
0.470224 0.393915 0
0.469735 0.3915 0
0.475902 0.383517 0
0.485211 0.387574 0
0.486541 0.392573 0
0.481354 0.399071 0
0.470224 0.393915 0
0.393068 0.918191 0
0.393228 0.918113 0
0.400975 0.919386 0
0.405844 0.928659 0
0.397493 0.934985 0
0.394659 0.934632 0
0.390006 0.930653 0
0.393068 0.918191 0
0.778141 0.434094 0
0.785009 0.428835 0
0.792113 0.432351 0
0.79355 0.439182 0
0.788958 0.444691 0
0.779035 0.439175 0
0.778141 0.434094 0
0.465955 0.405602 0
0.46493 0.402432 0
0.470224 0.393915 0
0.481354 0.399071 0
0.481759 0.402851 0
0.475157 0.409288 0
0.465955 0.405602 0
0.0396684 0.0344326 0
0.0459276 0.0349249 0
0.0484668 0.0468901 0
0.0423486 0.0508937 0
0.0347632 0.0382526 0
0.0396684 0.0344326 0
0.409314 0.895537 0
0.420076 0.904785 0
0.415659 0.91335 0
0.408277 0.911911 0
0.403348 0.902535 0
0.408615 0.895499 0
0.409314 0.895537 0
[...]
CELL_DATA 6400
FIELD FieldData 3
weight 1 6400 float
 0.0507865 0.0533485 0.0507692 0.0507309 0.0535136 0.0509257 0.0508464 0.0534909 0.0547094 0.0509021 0.053418 0.0508153 0.0547054 0.050892 0.0532931 0.0547164 0.0508724 0.0547524 0.0531174 0.0509947 0.0547542 0.0532085 0.0509686 0.0547493 0.0510353 0.053317 0.0509943 0.0532632 0.0547843 0.0510502 0.0531552 0.0510579 0.0547158 0.0530133 0.0511259 0.0547484 0.0539327 0.0529299 0.0511289 0.0547305 0.0538267 0.0509577 0.0547437 0.0529309 0.0537778 0.0508764 0.054764 0.0547779 0.0538545 0.0527462 0.0510957 0.054762 0.0509956 0.0539177 0.0527275 0.0510293 0.0538463 0.0547882 0.0509332 0.0527317 0.0537753 0.0510598 0.0525661 0.0547725 0.0536617 0.0511234 0.0547887 0.0525553 0.0537328 0.0548058 0.0511233 0.0528166 0.0535735 0.0548065 0.0512518 0.0527667 0.0547762 0.053708 0.0511681 0.052651 0.0548079 0.0536209 0.0547964 0.0512057 0.0526011 0.0548214 0.0539313 0.0511754 0.0526393 0.0547839 0.0538229 0.0548566 0.0513156 0.0530743 0.0548236 0.0510857 0.0539211 0.0530663 0.0511457 0.0548488 0.0512178 0.0539255 0.0531913 0.0511931 0.0548273 0.0528795 0.0512202 0.0548613 0.0538193 0.0548413 0.0512602 0.0529222 0.0536725 0.0548469 0.0513076 0.0530386 0.0537434 0.0513132 0.0548678 0.0531868 0.0512557 0.0535901 0.0546602 0.0513898 0.0531871 0.0547311 0.0537437 0.0514116 0.0547212 0.0514271 0.0532051 0.0536698 0.0546918 0.0513701 0.0530229 0.0536519 0.0547647 0.0514803 0.0547732 0.0530154 0.051497 0.0535891 0.0527687 0.0548016 0.0512497 0.0534839 0.0547993 0.0528093 0.0513283 0.0534141 0.0527536 0.0548313 0.0513696 0.0535755 0.0526431 0.0513344 0.0547065 0.053515 0.0513791 0.0547805 0.052605 0.0534467 0.0547514 0.051443 0.0533888 0.0528699 0.0547397 0.0514434 0.0533055 0.0528984 0.0532399 0.0514857 0.0547194 0.0528509 0.0515636 0.0531042 0.0547645 0.0526912 0.051631 0.0547938 0.053208 0.0548178 0.0527309 0.0533587 0.0515303 0.054828 0.0532717 0.0527007 0.0515358 0.054845 0.0531992 0.0516106 0.0523985 0.0535634 0.0547995 0.0517083 0.0522452 0.0535025 0.0548338 0.0509848 0.0523734 0.0534166 0.0510498 0.0548584 0.0522092 0.0510976 0.05342 0.0521682 0.0548146 0.0512086 0.0548335 0.0524622 0.0534819 0.0512185 0.0525015 0.0548461 0.0510985 0.0524291 0.0548534 0.0511614 0.0533853 0.0548613 0.0522058 0.0512712 0.0533244 0.0548781 0.0523389 0.0513179 0.0532336 0.0548728 0.0523272 0.0548841 0.0513584 0.0531174 0.0522974 0.0512625 0.0548833 0.0531768 0.0519802 0.0548882 0.051415 0.053316 0.0520675 0.0548959 0.0513175 0.0548979 0.0520668 0.0531332 0.0514241 0.0548663 0.0518697 0.0513149 0.0532098 0.0548866 0.051797 0.0514806 0.0519058 0.0520425 0.052072 0.0521687 0.0518913 0.0518972 0.0519306 0.0525094 0.0524405 0.0524422 0.0548754 0.0522537 0.052301 0.0530551 0.0523425 0.051192 0.0548893 0.052438 0.0512426 0.0529751 0.0548978 0.0525576 0.051354 0.0529064 0.0549152 0.0513093 0.0524401 0.0549094 0.0529934 0.0512487 0.0525492 0.0528394 0.0549074 0.0513677 0.0522802 0.0549165 0.0529025 0.0514124 0.0549034 0.0523086 0.051415 0.0528258 0.0520835 0.0515318 0.054901 0.0521968 0.0527415 0.0515048 0.0521437 0.0526695 0.0514523 0.0549042 0.0519251 0.0528244 0.0519455 0.0515471 0.0532441 0.052753 0.0519352 0.0532963 0.051561 0.0520254 0.0526477 0.0532953 0.0516256 0.05212 0.052706 0.0532314 0.052153 0.0532193 0.0514194 0.0530158 0.0532954 0.0515273 0.0521103 0.0529293 0.053394 0.0519822 0.0529166 0.0515327 0.0533512 0.0519614 0.0516071 0.0530346 0.05335 0.0515157 0.0529697 0.0532679 0.0549079 0.0516351 0.0532074 0.0528526 0.0517363 0.0532246 0.0549042 0.0528208 0.0516208 0.0533702 0.0548958 0.0527624 0.0548948 0.0517146 0.0533413 0.0526908 0.054882 0.0533271 0.0527714 0.0548898 0.0518213 0.053279 0.0527321 0.0548775 0.0517092 0.0534574 0.0526809 0.0548804 0.0517993 0.052628 0.0534348 0.0548465 0.0534543 0.0519079 0.0548703 0.0525957 0.0534062 0.0515964 0.0548717 0.0525085 0.0548816 0.053481 0.0524311 0.0516563 0.0548597 0.0516567 0.0535137 0.0524159 0.0548483 0.051757 0.0534926 0.0525718 0.0524492 0.0534954 0.0517362 0.0548323 0.0525077 0.0533705 0.0548458 0.0517434 0.0522791 0.0534102 0.0548605 0.0518319 0.0523466 0.0533274 0.0548355 0.0522274 0.0533917 0.0548294 0.0518465 0.0534292 0.0521445 0.0548556 0.0518169 0.0534633 0.0523004 0.0548409 0.0534694 0.0548119 0.0523693 0.051923 0.0522459 0.053437 0.0548049 0.0519401 0.0521609 0.0531575 0.05319 0.0548626 0.0526113 0.0519388 0.0531772 0.0548421 0.052542 0.0531179 0.0520352 0.0523944 0.0532555 0.0548427 0.0524884 0.053167 0.0520437 0.0548153 0.0532372 0.0514558 0.0526027 0.0548328 0.0530697 0.0515489 0.0525169 0.0548586 0.0530398 0.0524678 0.0515242 0.0530636 0.0548121 0.0524008 0.0532111 0.0516525 0.0523218 0.054783 0.0531172 0.0515999 0.052162 0.0530843 0.0522335 0.0516017 0.0547438 0.0531517 0.0523258 0.054782 0.0516558 0.0533145 0.0522422 0.0533254 0.0547477 0.0517583 0.0521774 0.0532623 0.0548169 0.0516678 0.0530603 0.051723 0.0547871 0.0533826 0.0548014 0.0518064 0.0528375 0.0534249 0.0518891 0.0547989 0.0529349 0.0533762 0.0517981 0.0547634 0.0517402 0.0547765 0.0533411 0.0530703 0.0518477 0.0532292 0.054703 0.0530097 0.0519187 0.0547463 0.0532128 0.0547366 0.0517903 0.0516761 0.0517245 0.0518282 0.0517468 0.0518776 0.0519051 0.0520145 0.0519027 0.0520909 0.0529808 0.051969 0.053182 0.0519578 0.0547648 0.0520696 0.0528324 0.053291 0.0547196 0.0533035 0.0521351 0.0528969 0.0547438 0.051981 0.0532821 0.0527458 0.0519697 0.0546884 0.0518839 0.0526511 0.0535461 0.052055 0.0548155 0.0527618 0.0535304 0.0519982 0.0548302 0.0526494 0.0520881 0.0535303 0.0548089 0.053012 0.0520962 0.0535579 0.05479 0.0521597 0.0529037 0.0535593 0.0547836 0.0522379 0.0534982 0.0548163 0.0530507 0.0521959 0.0535026 0.0547867 0.0522168 0.0529495 0.0547952 0.0534926 0.0522966 0.0548047 0.0534698 0.0547771 0.0522973 0.0528808 0.0547669 0.0535369 0.0520479 0.0527788 0.0547699 0.0535626 0.0521249 0.0526076 0.0535182 0.0522077 0.0547871 0.0535277 0.0526404 0.0522066 0.0547648 0.052709 0.0536189 0.0521838 0.0527011 0.0522635 0.0547468 0.0535886 0.0528228 0.0522988 0.054748 0.0535809 0.0523298 0.0526002 0.0547441 0.0536163 0.0547568 0.0523491 0.0524901 0.054721 0.0536596 0.052565 0.0524692 0.0547495 0.0536542 0.0547322 0.0524503 0.0524013 0.0536135 0.0547169 0.0525483 0.0524624 0.0535892 0.0547049 0.0523999 0.0535832 0.0524061 0.054758 0.0524567 0.053552 0.0547778 0.0525725 0.0523717 0.0536255 0.0547424 0.0519368 0.0523248 0.0547226 0.0536634 0.054721 0.0522427 0.0518231 0.054738 0.0521824 0.0536164 0.0520088 0.0546997 0.0521794 0.0534522 0.054704 0.0519638 0.052346 0.0534019 0.0522913 0.0520749 0.0534406 0.054677 0.0546786 0.0534785 0.052021 0.05223 0.0546545 0.0534969 0.0521612 0.0521492 0.0547032 0.0534435 0.0524682 0.0546835 0.0521969 0.053331 0.0521237 0.0525177 0.0546895 0.0533666 0.0522858 0.0524215 0.0546302 0.0533494 0.0522422 0.0546689 0.0523691 0.054656 0.0532946 0.0520244 0.0524313 0.0534016 0.0545726 0.0520687 0.05338 0.0525029 0.0546292 0.0521879 0.054642 0.0535256 0.0523449 0.0521435 0.0545938 0.0535226 0.0522166 0.0546062 0.0534746 0.0522852 0.0522572 0.0521513 0.0535923 0.0545517 0.0521639 0.0522758 0.0535704 0.0522133 0.0521409 0.0547002 0.0535496 0.0524394 0.0521979 0.0546658 0.0534912 0.0523342 0.0546143 0.0534662 0.0523664 0.0534293 0.0546524 0.0521932 0.0522961 0.0546718 0.0521252 0.0534115 0.0523798 0.0547079 0.0522514 0.0534998 0.0524101 0.0547128 0.0521708 0.0535437 0.0525187 0.0546265 0.0521207 0.0545543 0.0522585 0.0534714 0.0521891 0.0523248 0.0545302 0.0534449 0.0522533 0.052392 0.0529307 0.0545962 0.0523371 0.0524179 0.0529823 0.054491 0.0523368 0.053007 0.0524363 0.0525731 0.0544526 0.0529325 0.0525053 0.0528576 0.0545688 0.0525031 0.0523437 0.0545077 0.0530932 0.0524732 0.0524097 0.0530184 0.0546683 0.052516 0.0546263 0.0525087 0.0530452 0.0525426 0.0528376 0.0521059 0.0546576 0.0526833 0.0521613 0.0546246 0.0527778 0.0526413 0.0545789 0.0522476 0.0527531 0.0526098 0.0545251 0.0520833 0.0529931 0.0520749 0.0545398 0.0528722 0.0527172 0.0545839 0.0522231 0.052926 0.0526339 0.054492 0.0528773 0.0522249 0.0524252 0.0544851 0.0527697 0.0521494 0.0525085 0.0544175 0.0531432 0.0523145 0.0525504 0.0531669 0.0524082 0.0543703 0.0526552 0.0530865 0.0525412 0.0530868 0.0526667 0.0542803 0.0523161 0.0544407 0.0532479 0.0525601 0.0523913 0.0543347 0.0526236 0.0532299 0.0525002 0.0543657 0.0531796 0.0526755 0.052489 0.0529768 0.0541863 0.0530241 0.0527776 0.0542349 0.0526452 0.052934 0.0527364 0.0525825 0.0541001 0.0530764 0.0542774 0.052703 0.0527567 0.0531211 0.0541916 0.0527622 0.0530107 0.0528449 0.0541348 0.0526421 0.0529906 0.05439 0.0526618 0.0528558 0.0527614 0.0544626 0.0525759 0.0513094 0.0543076 0.0526048 0.0513707 0.0528622 0.0544133 0.0527357 0.0514258 0.0543708 0.0530675 0.0526967 0.0543359 0.0515109 0.0542205 0.0524978 0.0514136 0.0529812 0.0524893 0.0515152 0.0540941 0.0528274 0.0523941 0.0514982 0.0542563 0.0523306 0.0529545 0.0515897 0.0541707 0.0525932 0.0515929 0.0541178 0.0530711 0.0524494 0.0516608 0.0530386 0.0546455 0.0525279 0.0526155 0.0546112 0.051652 0.0524333 0.0545907 0.0527251 0.0517443 0.052844 0.0526951 0.054624 0.0516771 0.0529009 0.0545534 0.0525878 0.0527948 0.0518029 0.0545722 0.0528132 0.0527148 0.0517616 0.0544722 0.0529285 0.0515672 0.0529135 0.0545356 0.0514621 0.0528469 0.0544933 0.0528144 0.0516009 0.052924 0.0545151 0.0528614 0.0515085 0.0544556 0.0526286 0.0530517 0.0516104 0.0545973 0.0526491 0.0516613 0.0545341 0.0528974 0.0545036 0.052549 0.0517166 0.0530069 0.0545667 0.0517891 0.0528082 0.0520584 0.052143 0.0527208 0.0517191 0.0545131 0.0527303 0.0522187 0.0519056 0.0545415 0.0520484 0.0518537 0.0526995 0.0544696 0.0522006 0.0518405 0.0544295 0.0525857 0.0521328 0.0517637 0.0544721 0.0523899 0.0533103 0.0543918 0.0519455 0.052304 0.0531957 0.0544365 0.0519999 0.052508 0.0532562 0.0543825 0.0518347 0.0522778 0.0543679 0.0533577 0.0518595 0.0523124 0.0533135 0.0544314 0.0519242 0.0532572 0.0525271 0.0543719 0.0519551 0.0533288 0.0544239 0.0524193 0.0519653 0.0544107 0.0531904 0.0521015 0.0519045 0.0543022 0.0531539 0.0520298 0.0543414 0.0520564 0.0531049 0.0521676 0.0542361 0.0532576 0.0522314 0.0520414 0.0542851 0.0520792 0.0531271 0.054205 0.0520336 0.0531543 0.0521557 0.0531944 0.0521743 0.0541019 0.0521461 0.0521479 0.0520497 0.0521461 0.0522532 0.0519576 0.0520325 0.0521514 0.0520689 0.0523458 0.0521533 0.0542427 0.0522624 0.0533783 0.0523581 0.0522495 0.0541429 0.0522268 0.0524671 0.0541694 0.0534032 0.0523498 0.0543415 0.0524709 0.0533455 0.0523341 0.0542708 0.0523563 0.0542823 0.052306 0.0522655 0.0534406 0.0524104 0.0543079 0.0533759 0.0524603 0.0543069 0.0532941 0.0524356 0.0526368 0.0542391 0.0515777 0.0532311 0.0527668 0.0542055 0.0517069 0.0531882 0.052654 0.05417 0.0518119 0.0527568 0.0533269 0.0540783 0.0516395 0.0527801 0.0532668 0.0517449 0.0540897 0.0528654 0.0517946 0.0532855 0.0541554 0.0529793 0.051919 0.0529536 0.0541266 0.0519507 0.0530631 0.053045 0.0547315 0.051834 0.0528856 0.0529063 0.0547236 0.0529912 0.0520811 0.0530027 0.0546887 0.0530644 0.052045 0.0529693 0.0529986 0.0547101 0.0526014 0.051916 0.0528982 0.0547027 0.0526939 0.0520546 0.0546943 0.0527988 0.0527887 0.0521579 0.054706 0.0517057 0.0527364 0.0525771 0.0546736 0.051821 0.0526556 0.0528939 0.0546867 0.0519657 0.0525638 0.0528513 0.0546715 0.0518627 0.0527629 0.0529483 0.0546559 0.0518711 0.0546578 0.0527667 0.0517672 0.052799 0.0528885 0.0520346 0.0546668 0.0527867 0.0546488 0.0529524 0.0519124 0.0531101 0.0546821 0.0520256 0.0530405 0.0530695 0.0546431 0.0521302 0.0530196 0.0528672 0.0546289 0.0522355 0.0546572 0.0532174 0.0529691 0.0546323 0.0521973 0.053142 0.0546186 0.0531734 0.0520918 0.0531598 0.0546177 0.053264 0.05307 0.0546027 0.052232 0.0529665 0.0532414 0.0522512 0.054652 0.0546132 0.0528837 0.0521258 0.0531393 0.0546066 0.0522114 0.0532272 0.0530481 0.0546418 0.052326 0.0545757 0.0533206 0.0522974 0.0530113 0.0545874 0.0533318 0.0521961 0.0529676 0.0545457 0.0534415 0.0523536 0.0545426 0.0537072 0.0523747 0.0544975 0.0535271 0.0524754 0.0546228 0.0537001 0.0545844 0.053404 0.052501 0.0537223 0.054563 0.0524185 0.0534974 0.0537488 0.0545483 0.0525248 0.0534489 0.054515 0.0538112 0.0545394 0.0525702 0.0531592 0.0544721 0.0537821 0.0532617 0.0523249 0.0545292 0.0537826 0.0544978 0.0524988 0.0530942 0.0537161 0.0544488 0.0524081 0.0531199 0.0536688 0.0544454 0.053264 0.0523414 0.0536726 0.0544305 0.0532104 0.0524301 0.0537861 0.0544765 0.0533435 0.0537263 0.0543923 0.052548 0.0535312 0.0537823 0.0524578 0.0546121 0.0534299 0.0538586 0.0525559 0.0533278 0.0546186 0.0538446 0.0526103 0.0545817 0.0533988 0.0539198 0.0545792 0.0526127 0.0534906 0.054025 0.0545308 0.0535906 0.0526649 0.0545739 0.053961 0.0545342 0.0539712 0.053691 0.0545756 0.0538433 0.052772 0.0537679 0.0545653 0.053896 0.0526992 0.0536686 0.0545343 0.0538341 0.0544889 0.0522508 0.053567 0.0538868 0.0545327 0.0522543 0.0536334 0.0539582 0.0544686 0.0523547 0.0537229 0.054015 0.0544845 0.0523523 0.0539867 0.0538854 0.0544797 0.0539354 0.0523486 0.0539093 0.0544371 0.0536403 0.0524456 0.0543796 0.0535984 0.0524507 0.0540034 0.0544856 0.0536735 0.0524666 0.0544405 0.0536439 0.053815 0.0544336 0.0525985 0.0537119 0.0537548 0.0543407 0.0524863 0.0537169 0.0526354 0.0544187 0.053581 0.0525405 0.0543608 0.0526783 0.0535232 0.0545143 0.0525703 0.0538995 0.0536041 0.0545046 0.0525345 0.0536754 0.053992 0.0544479 0.0524428 0.0536401 0.0544723 0.0536718 0.0544354 0.0525409 0.0535714 0.0544059 0.0535814 0.0526131 0.0544053 0.0537925 0.0537982 0.0525237 0.0537558 0.0537752 0.0543389 0.0526177 0.0538325 0.0536208 0.0543837 0.0526259 0.0539311 0.0537116 0.0543345 0.0527147 0.0538812 0.0538879 0.054405 0.0527424 0.0538949 0.0527052 0.0543532 0.0539834 0.0537094 0.0543354 0.0527865 0.0540576 0.0536958 0.0543561 0.0528091 0.053852 0.0536403 0.0526286 0.0543097 0.0538035 0.0539137 0.0527363 0.0538497 0.0539614 0.0542792 0.0537502 0.0528326 0.054318 0.0540193 0.053796 0.0542709 0.0527589 0.053177 0.0528047 0.0540484 0.0542522 0.0531738 0.052774 0.0541201 0.0542724 0.0530857 0.0527013 0.0540356 0.0541846 0.0532678 0.0529 0.0541034 0.053203 0.0541889 0.052917 0.0534027 0.0541971 0.0545 0.0533412 0.0528318 0.0541582 0.0544123 0.0534929 0.0541902 0.0529217 0.0535161 0.0544607 0.0542466 0.052941 0.0533607 0.0540908 0.0544475 0.0530337 0.0534508 0.0540831 0.0544005 0.0535551 0.0541584 0.0529946 0.0544113 0.05314 0.0541512 0.0528276 0.0542916 0.0531727 0.0528664 0.0542699 0.0543056 0.0532716 0.0529194 0.0543359 0.0543551 0.0529628 0.0530613 0.0543412 0.0543163 0.0528979 0.0543338 0.0531197 0.0529801 0.0542191 0.0532488 0.054415 0.0542692 0.0530218 0.0532044 0.0543872 0.0530519 0.0543499 0.0533564 0.0543835 0.0530837 0.0543235 0.0534338 0.0543915 0.052996 0.0543012 0.0543247 0.0535356 0.053167 0.0543159 0.0542375 0.0533077 0.0542551 0.0542712 0.0531155 0.0533972 0.0541956 0.0542276 0.0542487 0.0531366 0.0535255 0.0541761 0.0543672 0.0537021 0.053111 0.0541113 0.0544008 0.0536037 0.0532289 0.0542385 0.054346 0.0538087 0.052682 0.0536603 0.0543781 0.0542419 0.0525945 0.0537732 0.0539917 0.0541685 0.0526908 0.0538901 0.0540623 0.0542333 0.0526624 0.054038 0.0541574 0.0527531 0.0540559 0.0539412 0.0541592 0.0527655 0.0540952 0.0539995 0.0527814 0.0539926 0.0541865 0.0539539 0.0528806 0.0541488 0.0538586 0.0540698 0.0540888 0.0528608 0.0540166 0.0540855 0.0539004 0.0529172 0.0536212 0.0540691 0.0528424 0.0537412 0.0538405 0.0540823 0.0529581 0.054034 0.0538213 0.0540037 0.0539906 0.0526893 0.0536122 0.0541387 0.0539777 0.0537009 0.0541566 0.0527809 0.0539445 0.0537449 0.0540808 0.0528372 0.0542334 0.0539219 0.0540416 0.0541837 0.0527563 0.05406 0.0539377 0.0543109 0.0539867 0.0528453 0.0540293 0.0539976 0.054339 0.0528528 0.0539963 0.0538419 0.0529244 0.0542991 0.0539203 0.0538725 0.052899 0.054268 0.0538978 0.0529137 0.0541234 0.0539776 0.0539035 0.0530538 0.0520087 0.054158 0.0542628 0.0529733 0.0520949 0.0542553 0.0541114 0.0520865 0.0529916 0.0542667 0.0540707 0.0520002 0.0529845 0.0541915 0.0520698 0.0542215 0.0541903 0.0541154 0.0521668 0.0531009 0.0542492 0.0541803 0.0523447 0.0530237 0.0541018 0.054201 0.0530451 0.054116 0.0522498 0.0535091 0.0540357 0.0529694 0.0524624 0.05404 0.0534757 0.053073 0.0522425 0.0541962 0.0534008 0.0531335 0.0523527 0.0541223 0.0534352 0.0530366 0.0541115 0.0524544 0.0535537 0.0531919 0.051978 0.0535132 0.0531112 0.0520564 0.0541139 0.0535004 0.0521381 0.054048 0.0531776 0.0533637 0.0520236 0.0532036 0.0519571 0.0533534 0.0540421 0.0521408 0.0540367 0.0533213 0.0532851 0.0521165 0.0539612 0.0534552 0.0532622 0.0522436 0.0539661 0.0534334 0.0532601 0.0523419 0.0539651 0.0533766 0.0522555 0.0533454 0.0538855 0.0524449 0.0536522 0.0531803 0.0539484 0.0530789 0.0536028 0.0522296 0.0540293 0.0539688 0.053246 0.0535743 0.0523924 0.0531589 0.0539573 0.0523552 0.0537409 0.0538722 0.0532211 0.0525609 0.0536168 0.0538647 0.0531395 0.0538843 0.0526675 0.0537077 0.0538009 0.0527042 0.0532705 0.0535329 0.0526207 0.0535016 0.0537238 0.0533368 0.0525353 0.0536633 0.0538106 0.0526722 0.0533294 0.0535812 0.0537767 0.0535646 0.0528059 0.0536978 0.0534305 0.0536207 0.0528655 0.0538785 0.0535211 0.053366 0.0529202 0.053884 0.0532467 0.0537922 0.0534508 0.053015 0.0531316 0.0537982 0.0527568 0.0534101 0.0532144 0.0537953 0.0528548 0.0533429 0.0537045 0.0534975 0.053301 0.052957 0.0537786 0.0523729 0.0532595 0.0525605 0.0536858 0.0531745 0.0523102 0.0524685 0.0536841 0.0531165 0.0523981 0.0526562 0.0525638 0.0524465 0.0530893 0.0535875 0.0524926 0.0525405 0.0530387 0.0536027 0.0526422 0.0532016 0.0524283 0.0527613 0.0535831 0.0531518 0.0524723 0.052893 0.0526069 0.0530732 0.0527288 0.0540131 0.0525453 0.0528452 0.0534158 0.0540065 0.0526119 0.0533729 0.0525084 0.0528388 0.0538169 0.0525899 0.0532863 0.0520065 0.0533249 0.0526965 0.0519326 0.0539009 0.0526422 0.0534606 0.0521217 0.0540466 0.0527469 0.0519616 0.0534929 0.0527605 0.0539294 0.0518957 0.0534028 0.052042 0.0538262 0.0525973 0.0532403 0.0522761 0.0532709 0.0525187 0.0537378 0.0522678 0.053191 0.0526272 0.0536456 0.0521692 0.0533528 0.0526758 0.0535751 0.0524 0.0532303 0.0527134 0.0537585 0.0521739 0.0533142 0.0527034 0.0537309 0.0523584 0.0527436 0.053879 0.0536319 0.0522652 0.0528268 0.053793 0.0539768 0.0519272 0.0528425 0.0538427 0.0518735 0.0538613 0.0527879 0.0537495 0.0520553 0.0539884 0.0529145 0.0539374 0.052015 0.054059 0.053906 0.0518156 0.0529086 0.0538092 0.0526662 0.0518143 0.0538677 0.0537145 0.0527461 0.0520091 0.0528321 0.0539469 0.0536611 0.0528272 0.0519278 0.0536834 0.0538585 0.0528264 0.0537704 0.0521785 0.0538031 0.0527812 0.0537618 0.0535916 0.0521254 0.0529306 0.053707 0.0537488 0.0529054 0.0522726 0.0536524 0.0529326 0.0540299 0.0521186 0.0529102 0.0539508 0.0535065 0.0529757 0.0522398 0.0539946 0.0534232 0.0529929 0.052481 0.0534647 0.0530352 0.0541726 0.0526481 0.0535512 0.0525611 0.0530278 0.0540809 0.0523912 0.0533484 0.0530859 0.0541181 0.0524732 0.0528469 0.0532917 0.0540345 0.0525404 0.0529415 0.0525538 0.053892 0.0533343 0.0529402 0.0527371 0.0538328 0.0530151 0.0531984 0.0529813 0.0532597 0.052861 0.0540596 0.0532592 0.0530278 0.0527617 0.0539746 0.0530772 0.0531795 0.0526676 0.053918 0.0535249 0.0531169 0.0526445 0.053527 0.053057 0.0534336 0.0527584 0.0535941 0.0530971 0.0533546 0.0523593 0.0534317 0.0531565 0.0534366 0.0524442 0.0534718 0.0531161 0.0534978 0.0525003 0.0536463 0.0531951 0.0533888 0.0523238 0.0535668 0.0531564 0.0535809 0.0532665 0.0531504 0.0522721 0.0531825 0.0534006 0.0532618 0.0524019 0.0533612 0.0531515 0.053223 0.0523751 0.0532511 0.0532788 0.052761 0.0533341 0.0526053 0.0534533 0.0527827 0.0531527 0.0527075 0.053411 0.0528548 0.0525388 0.0540605 0.0537364 0.052803 0.0539881 0.0524923 0.0537463 0.0538624 0.0527167 0.0536576 0.0526502 0.0540266 0.0528609 0.0536621 0.053871 0.0529303 0.0526124 0.053847 0.0539483 0.0529465 0.0530829 0.0538271 0.0528738 0.0538344 0.05314 0.0537305 0.0537402 0.0530107 0.0530602 0.0535572 0.0536448 0.0529967 0.0530224 0.0537819 0.0535059 0.0530122 0.053662 0.0532103 0.0535812 0.0534711 0.0530405 0.0531601 0.0536289 0.0539981 0