# vtk DataFile Version 3.0
vtk output
ASCII
DATASET UNSTRUCTURED_GRID
POINTS 34179 float
0 0 0
1 0 0
1 1 0
0 1 0
0 0 0
0 0 0
1 0 0
1 1 0
0 1 0
0 0 0
0 0 0
1 0 0
1 1 0
0 1 0
0 0 0
0 0 0
1 0 0
1 1 0
0 1 0
0 0 0
0 0 0
1 0 0
1 1 0
0 1 0
0 0 0
0 0 0
1 0 0
1 1 0
0 1 0
0 0 0
0 0 0
1 0 0
1 1 0
0 1 0
0 0 0
0 0 0
1 0 0
1 1 0
0 1 0
0 0 0
0 0 0
1 0 0
1 1 0
0 1 0
0 0 0
0.436081 0 0
1 0 0
1 1 0
0.966896 1 0
0.6982 0.508853 0
0.436081 0 0
0 0 0
1 0 0
1 1 0
0 1 0
0 0 0
0 0 0
1 0 0
1 1 0
0 1 0
0 0 0
0 0 0
1 0 0
1 1 0
0 1 0
0 0 0
0 0 0
1 0 0
1 1 0
0 1 0
0 0 0
0 0 0
1 0 0
1 1 0
0 1 0
0 0 0
0 0 0
1 0 0
1 1 0
0 1 0
0 0 0
0.4838 0.0361207 0
0.463914 0 0
1 0 0
1 0.884593 0
0.756236 0.494798 0
0.4838 0.0361207 0
0 0 0
1 0 0
1 1 0
0 1 0
0 0 0
0.361802 0.518442 0
0.616177 0 0
1 0 0
1 1 0
0.133052 1 0
0.361802 0.518442 0
0 0 0
1 0 0
1 1 0
0 1 0
0 0 0
0 0 0
1 0 0
1 1 0
0 1 0
0 0 0
0 0 0
1 0 0
1 1 0
0 1 0
0 0 0
0 0 0
1 0 0
1 1 0
0 1 0
0 0 0
0 0 0
1 0 0
1 1 0
0 1 0
0 0 0
0.57697 0.230497 0
0.458974 0 0
1 0 0
1 1 0
0.997704 1 0
0.729986 0.518478 0
0.57697 0.230497 0
0 0 0
1 0 0
1 1 0
0 1 0
0 0 0
0 0 0
1 0 0
1 1 0
0 1 0
0 0 0
0 0 0
1 0 0
1 1 0
0 1 0
0 0 0
0 0 0
1 0 0
1 1 0
0 1 0
0 0 0
0 0 0
1 0 0
1 1 0
0 1 0
0 0 0
0 0 0
1 0 0
1 1 0
0 1 0
0 0 0
0 0 0
1 0 0
1 1 0
0 1 0
0 0 0
0 0 0
1 0 0
1 1 0
0 1 0
0 0 0
0.315685 0 0
1 0 0
1 0.841162 0
0.769107 0.565462 0
0.315685 0 0
0 0 0
1 0 0
1 1 0
0 1 0
0 0 0
0 0 0
1 0 0
1 1 0
0 1 0
0 0 0
0 0 0
1 0 0
1 1 0
0 1 0
0 0 0
0.626925 0.0052997 0
0.629577 0 0
1 0 0
1 1 0
0.181088 1 0
0.353641 0.60558 0
0.581829 0.100046 0
0.626925 0.0052997 0
0 0 0
1 0 0
1 1 0
0 1 0
0 0 0
0 0 0
1 0 0
1 1 0
0 1 0
0 0 0
0 0 0
1 0 0
1 1 0
0 1 0
0 0 0
0 0 0
1 0 0
1 1 0
0 1 0
0 0 0
0.456238 0 0
1 0 0
1 1 0
0.940186 1 0
0.694888 0.509148 0
0.456238 0 0
0 0 0
1 0 0
1 1 0
0 1 0
0 0 0
0 0 0
1 0 0
1 1 0
0 1 0
0 0 0
0 0 0
1 0 0
1 1 0
0 1 0
0 0 0
0 0 0
1 0 0
1 1 0
0 1 0
0 0 0
0 0 0
1 0 0
1 1 0
0 1 0
0 0 0
0.254747 0 0
1 0 0
1 0.992403 0
0.685613 0.585124 0
0.581168 0.443557 0
0.254747 0 0
0 0 0
1 0 0
1 1 0
0 1 0
0 0 0
0 0 0
1 0 0
1 1 0
0 1 0
0 0 0
0 0 0
1 0 0
1 1 0
0 1 0
0 0 0
0 0 0
1 0 0
1 1 0
0 1 0
0 0 0
0 0 0
1 0 0
1 1 0
0 1 0
0 0 0
0 0 0
1 0 0
1 1 0
0 1 0
0 0 0
0.267879 0 0
1 0 0
1 1 0
0.904328 1 0
0.315981 0.0783088 0
0.267879 0 0
0 0 0
1 0 0
1 1 0
0 1 0
0 0 0
0 0 0
1 0 0
1 1 0
0 1 0
0 0 0
0 0 0
1 0 0
1 1 0
0 1 0
0 0 0
0.341058 0.0518992 0
0.307782 0 0
1 0 0
1 1 0
0.967301 1 0
0.620937 0.486848 0
0.341058 0.0518992 0
0 0 0
1 0 0
1 1 0
0 1 0
0 0 0
0 0 0
1 0 0
1 1 0
0 1 0
0 0 0
0 0 0
1 0 0
1 1 0
0 1 0
0 0 0
0 0 0
1 0 0
1 1 0
0 1 0
0 0 0
0 0 0
1 0 0
1 1 0
0 1 0
0 0 0
0 0 0
1 0 0
1 1 0
0 1 0
0 0 0
0 0 0
1 0 0
1 1 0
0 1 0
0 0 0
0 0 0
1 0 0
1 1 0
0 1 0
0 0 0
0 0 0
1 0 0
1 1 0
0 1 0
0 0 0
0 0 0
1 0 0
1 1 0
0 1 0
0 0 0
0 0 0
1 0 0
1 1 0
0 1 0
0 0 0
0 0 0
1 0 0
1 1 0
0 1 0
0 0 0
0 0 0
1 0 0
1 1 0
0 1 0
0 0 0
0 0 0
1 0 0
1 1 0
0 1 0
0 0 0
0.374117 0 0
1 0 0
1 1 0
0.949842 1 0
0.67385 0.542105 0
0.374117 0 0
0 0 0
1 0 0
1 1 0
0 1 0
0 0 0
0 0 0
1 0 0
1 1 0
0 1 0
0 0 0
0 0 0
0.0178066 0 0
0 0.0232393 0
0 0 0
0 0 0
1 0 0
1 1 0
0 1 0
0 0 0
0 0 0
1 0 0
1 1 0
0 1 0
0 0 0
0.228783 0 0
1 0 0
1 1 0
0.832861 1 0
0.564901 0.571788 0
0.228783 0 0
0 0 0
1 0 0
1 1 0
0 1 0
0 0 0
0 0 0
0.0548224 0 0
0 0.0138977 0
0 0 0
0 0 0
0.172296 0 0
0.342255 0.0927348 0
1 0.462567 0
1 1 0
0 1 0
0 0 0
0.278911 0 0
1 0 0
1 1 0
0.88961 1 0
0.319849 0.0694783 0
0.278911 0 0
0 0 0
0.222127 0 0
0.799836 0.301089 0
1 0.412217 0
1 1 0
0 1 0
0 0 0
0 0 0
0.358397 0 0
0 0.230763 0
0 0 0
0 0 0
1 0 0
1 1 0
0 1 0
0 0 0
0 0 0
1 0 0
1 1 0
0 1 0
0 0 0
0.263906 0 0
1 0 0
1 1 0
0.791513 1 0
0.593207 0.637795 0
0.580999 0.614864 0
0.263906 0 0
0 0 0
1 0 0
1 1 0
0 1 0
0 0 0
0 0 0
0.346508 0 0
0 0.207328 0
0 0 0
0 0 0
1 0 0
1 1 0
0 1 0
0 0 0
0 0 0
1 0 0
1 1 0
0 1 0
0 0 0
0 0 0
1 0 0
1 1 0
0 1 0
0 0 0
0 0 0
0.00137885 0 0
0 0.00145509 0
0 0 0
0 0 0
0.201459 0 0
0.0698311 0.0407788 0
0 0.0608665 0
0 0 0
0.55344 0 0
1 0 0
1 1 0
0.0436846 1 0
0.248519 0.591757 0
0.530916 0.0420158 0
0.55344 0 0
0 0.00535438 0
0.315432 0.19938 0
0.730435 0.463009 0
1 0.640052 0
1 1 0
0 1 0
0 0.00535438 0
0 0 0
0.253958 0 0
0.139716 0.0449439 0
0 0.095939 0
0 0 0
0.387926 0 0
1 0 0
1 1 0
0.930382 1 0
0.669952 0.542252 0
0.387926 0 0
0 0.0913577 0
0.212591 0.202538 0
0.687553 0.459082 0
1 0.635099 0
1 1 0
0 1 0
0 0.0913577 0
0 0 0
0.441988 0 0
0 0.224608 0
0 0 0
0 0.0252458 0
0.327435 0.205074 0
0.739538 0.439411 0
1 0.593571 0
1 1 0
0 1 0
0 0.0252458 0
0 0 0
0.24616 0 0
0.117498 0.0436198 0
0 0.080564 0
0 0 0
0.362237 0 0
1 0 0
1 0.919414 0
0.717264 0.527516 0
0.410173 0.0732623 0
0.362237 0 0
0 0 0
0.0168743 0 0
0 0.0185763 0
0 0 0
0 0 0
0.135148 0 0
0 0.0349636 0
0 0 0
0 0.0226525 0
1 0.667412 0
1 1 0
0 1 0
0 0.0226525 0
0.380908 0 0
1 0 0
1 0.936884 0
0.718756 0.527448 0
0.412416 0.0506447 0
0.380908 0 0
0 0 0
0.0183125 0 0
0 0.0217895 0
0 0 0
0 0 0
0.421761 0 0
0.0510937 0.242915 0
0 0.275418 0
0 0 0
0 0.118877 0
0.0859928 0.164431 0
0.933354 0.625567 0
1 0.664032 0
1 1 0
0 1 0
0 0.118877 0
0 0 0
0.010389 0 0
0 0.0112913 0
0 0 0
0 0 0
0.0156297 0 0
0 0.0036173 0
0 0 0
0 0.120329 0
0.183924 0.209705 0
0.686492 0.461949 0
1 0.62633 0
1 1 0
0 1 0
0 0.120329 0
0.40022 0.449811 0
0.652639 0 0
1 0 0
1 1 0
0.103038 1 0
0.40022 0.449811 0
0 0 0
0.206744 0 0
0 0.0615393 0
0 0 0
0 0 0
0.0276797 0 0
0 0.0327196 0
0 0 0
0 0 0
0.0108251 0 0
1 0.58813 0
1 1 0
0 1 0
0 0 0
0 0 0
0.321038 0 0
0 0.119107 0
0 0 0
0.39557 0.120747 0
0.322144 0 0
1 0 0
1 1 0
0.948403 1 0
0.619552 0.487398 0
0.39557 0.120747 0
0 0 0
0.0414721 0 0
0 0.0445386 0
0 0 0
0 0 0
0.493988 0 0
0 0.262099 0
0 0 0
0 0 0
0.139466 0 0
0.196594 0.0367573 0
0.257403 0.0766461 0
1 0.574812 0
1 1 0
0 1 0
0 0 0
0 0 0
0.00690104 0 0
0 0.00692003 0
0 0 0
0.405837 0 0
1 0 0
1 1 0
0.919375 1 0
0.672384 0.54216 0
0.405837 0 0
0 0 0
0.489375 0 0
0 0.239713 0
0 0 0
0 0 0
0.0365691 0 0
0 0.0377805 0
0 0 0
0 0 0
0.079429 0 0
0.32822 0.170663 0
0.566164 0.338334 0
1 0.655921 0
1 1 0
0 1 0
0 0 0
0 0 0
0.0539619 0 0
0.0535972 0.000482419 0
0 0.0674306 0
0 0 0
0 0 0
0.0750273 0 0
0 0.0894221 0
0 0 0
0 0 0
0.0528789 0 0
0 0.0604457 0
0 0 0
0 0.0647558 0
0.304278 0.213641 0
0.740913 0.435001 0
1 0.572105 0
1 1 0
0 1 0
0 0.0647558 0
0.355533 0.650889 0
0.651072 0 0
1 0 0
1 1 0
0.202369 1 0
0.355533 0.650889 0
0 0.0507841 0
0.31238 0.210644 0
0.740174 0.437369 0
1 0.58092 0
1 1 0
0 1 0
0 0.0507841 0
0 0.173826 0
0.930438 0.615381 0
1 0.650182 0
1 1 0
0 1 0
0 0.173826 0
0 0 0
0.40681 0 0
0 0.176549 0
0 0 0
0.474946 0 0
1 0 0
1 0.525161 0
0.967719 0.495134 0
0.642709 0.17152 0
0.479935 0.00535346 0
0.474946 0 0
0 0.129356 0
0.682263 0.510124 0
1 0.702342 0
1 1 0
0 1 0
0 0.129356 0
0 0.144648 0
0.0484444 0.168382 0
0.930103 0.612007 0
1 0.649452 0
1 1 0
0 1 0
0 0.144648 0
0.540671 0 0
1 0 0
1 0.531746 0
0.926528 0.450629 0
0.540671 0 0
0 0 0
0.346224 0 0
0 0.155681 0
0 0 0
0 0.152996 0
0.899101 0.665097 0
1 0.72608 0
1 1 0
0 1 0
0 0.152996 0
0.624084 0 0
1 0 0
1 0.536684 0
0.906544 0.410474 0
0.70484 0.121169 0
0.624084 0 0
0 0.22207 0
0.622955 0.47493 0
1 0.637257 0
1 1 0
0 1 0
0 0.22207 0
0.609697 0 0
1 0 0
1 0.191472 0
0.609697 0 0
0.462311 0 0
1 0 0
1 0.533965 0
0.861919 0.402568 0
0.462311 0 0
0 0 0
0.0980956 0 0
0.688006 0.44963 0
1 0.696212 0
1 1 0
0 1 0
0 0 0
0.565034 0 0
1 0 0
1 0.244152 0
0.565034 0 0
0.640488 0 0
1 0 0
1 0.545417 0
0.90599 0.410518 0
0.709197 0.109847 0
0.640488 0 0
0 0.0132965 0
0.277003 0.186218 0
1 0.650282 0
1 1 0
0 1 0
0 0.0132965 0
0.557856 0 0
1 0 0
1 0.538989 0
0.924216 0.450956 0
0.557856 0 0
0 0 0
0.510652 0 0
0 0.323693 0
0 0 0
0 0 0
0.0301854 0 0
0.302178 0.173109 0
0.562688 0.343347 0
1 0.640486 0
1 1 0
0 1 0
0 0 0
0.678581 0 0
1 0 0
1 0.544178 0
0.881279 0.357995 0
0.678581 0 0
0 0.166043 0
0.683252 0.506927 0
1 0.679259 0
1 1 0
0 1 0
0 0.166043 0
0.689693 0 0
1 0 0
1 0.551578 0
0.882376 0.357959 0
0.689693 0 0
0.479303 0 0
1 0 0
1 0.401822 0
0.479303 0 0
0 0.169134 0
0.00778145 0.172662 0
0.92739 0.600693 0
1 0.636821 0
1 1 0
0 1 0
0 0.169134 0
0.715601 0 0
1 0 0
1 0.479742 0
0.855737 0.245346 0
0.715601 0 0
0.46801 0 0
1 0 0
1 0.433603 0
0.924645 0.373367 0
0.46801 0 0
0.62797 0 0
1 0 0
1 0.491864 0
0.987125 0.47629 0
0.949198 0.428365 0
0.653172 0.0355242 0
0.62797 0 0
0.512559 0 0
1 0 0
1 0.342498 0
0.512559 0 0
0.61772 0 0
1 0 0
1 0.556697 0
0.92312 0.451262 0
0.760434 0.216931 0
0.61772 0 0
0 0.397435 0
0.0100743 0.392875 0
0.256945 0.285696 0
0.388904 0.23032 0
0.690291 0.448934 0
1 0.681849 0
1 1 0
0 1 0
0 0.397435 0
0.667459 0 0
1 0 0
1 0.561495 0
0.905517 0.410555 0
0.717231 0.0889672 0
0.667459 0 0
0.629624 0 0
1 0 0
1 0.194985 0
0.629624 0 0
0.708622 0 0
1 0 0
1 0.56479 0
0.884354 0.357894 0
0.708622 0 0
0 0 0
0.0849962 0 0
0.305268 0.108366 0
0.818044 0.367876 0
1 0.462799 0
1 1 0
0 1 0
0 0 0
0 0 0
0.000673595 0 0
0 0.00065219 0
0 0 0
0.437913 0 0
1 0 0
1 0.547675 0
0.809604 0.372298 0
0.706049 0.271792 0
0.437913 0 0
0 0 0
0.0908975 0 0
0.244205 0.0842438 0
0.720665 0.35275 0
0.776625 0.385389 0
1 0.519856 0
1 1 0
0 1 0
0 0 0
0 0 0
0.00366648 0 0
0 0.00328311 0
0 0 0
0.691382 0 0
1 0 0
1 0.141154 0
0.810395 0.0571342 0
0.691382 0 0
0.335311 0 0
1 0 0
1 0.574614 0
0.721598 0.342391 0
0.476409 0.126852 0
0.335311 0 0
0 0 0
0.190991 0 0
0.421116 0.157027 0
1 0.562768 0
1 1 0
0 1 0
0 0 0
0 0 0
0.0130915 0 0
0 0.0105084 0
0 0 0
0.529413 0 0
1 0 0
1 0.544002 0
0.954238 0.494781 0
0.627576 0.116271 0
0.529413 0 0
0.604469 0 0
1 0 0
1 0.238677 0
0.604469 0 0
0 0 0
0.0551575 0 0
0.224448 0.0877603 0
0.72141 0.35192 0
0.778109 0.38313 0
1 0.509272 0
1 1 0
0 1 0
0 0 0
0 0 0
0.0170872 0 0
0 0.0125115 0
0 0 0
0.564257 0 0
1 0 0
1 0.278912 0
0.564257 0 0
0.463704 0 0
1 0 0
1 0.555636 0
0.811794 0.371074 0
0.708897 0.264682 0
0.463704 0 0
0 0 0
0.0185357 0 0
0.27689 0.123279 0
0.542341 0.253491 0
0.96244 0.467019 0
1 0.486859 0
1 1 0
0 1 0
0 0 0
0 0 0
0.0280154 0 0
0 0.0353645 0
0 0 0
0.375044 0.745959 0
0.644949 0 0
1 0 0
1 1 0
0.28644 1 0
0.375044 0.745959 0
0.573804 0 0
1 0 0
1 0.158419 0
0.582809 0.00365517 0
0.573804 0 0
0 0 0
0.0745964 0 0
[...]
CELL_DATA 6189
FIELD FieldData 3
weight 1 6189 float
 0.953246 0.953137 0.959242 0.95945 0.959498 0.95298 0.952876 0.959476 0.953253 0.915669 0.959323 0.96584 0.965554 0.965453 0.965838 0.965792 0.909215 0.971846 0.915742 0.971956 0.959402 0.972003 0.965449 0.965609 0.915671 0.971696 0.978291 0.977883 0.978147 0.984156 0.978282 0.978124 0.984465 0.921756 0.990794 0.984324 0.990755 0.921668 0.984279 0.984536 0.990473 0.990472 0.921845 0.996673 0.990438 0.965446 0.965705 0.971991 0.934483 0.978213 0.971824 0.971809 0.977965 0.971808 0.96539 0.934232 0.971648 0.978287 0.978003 0.934282 0.977988 0.984263 0.984322 0.984378 0.990865 0.997103 0.990453 0.990396 0.98433 0.984513 0.990742 1.17196 0.990389 1.16562 0.928116 0.996994 1.16541 0.722027 1.17187 1.17199 0.946675 1.17816 0.709412 1.17809 0.940707 1.17811 0.702997 1.17176 1.17205 0.946735 1.17168 0.703047 1.17834 1.17808 1.17832 0.703205 0.715486 0.9405 1.17817 0.715626 0.934502 1.18462 0.728334 1.17799 0.721653 0.92807 0.72176 0.715382 1.1782 0.928329 0.722105 0.709449 1.18435 0.721915 0.703111 1.18454 0.92821 0.709333 0.728311 1.17817 0.721732 0.940485 0.721683 0.727996 1.18439 0.721905 0.934573 0.728118 0.721653 1.18441 0.728155 0.728255 0.728012 1.18427 0.934612 1.18428 1.19085 0.721665 0.878322 1.19701 1.19047 0.871943 0.721657 1.19672 0.865814 1.19677 0.728257 0.878118 1.19057 0.740491 0.865456 1.19041 0.871999 0.734283 1.19058 0.859532 1.19683 0.859541 0.740411 1.19702 0.853106 0.746993 0.865537 0.746832 0.872021 1.19711 0.865396 0.734145 0.859343 1.18444 0.740426 0.884458 1.17824 0.740569 0.734213 0.890795 1.18436 0.740708 0.878214 0.740874 1.19079 0.74054 0.740708 0.884586 1.17819 0.72817 0.896848 0.753031 1.18454 0.890787 0.728144 1.18422 0.8782 0.74694 0.871922 1.18446 0.740723 0.865678 0.709589 0.734468 0.88445 1.19062 0.878083 0.734559 0.87196 0.74082 1.18425 0.71586 0.84667 0.734323 1.18429 0.740646 0.728169 1.1908 0.840863 0.746706 0.72803 0.846872 1.19062 0.740717 0.721967 0.852994 0.740867 1.19064 0.859374 0.740424 0.853154 1.19712 0.746631 0.746865 0.847054 1.19687 0.753303 0.715427 0.83452 1.19666 0.746969 0.746729 1.19696 0.734428 0.828321 0.740515 0.753265 1.19081 0.734539 0.746916 1.19056 0.834172 0.740729 0.828078 0.746765 0.747061 1.1906 0.840397 1.19675 0.759215 0.747026 1.19694 0.840693 0.734371 1.19696 0.753365 0.996991 0.728282 1.00337 0.834336 1.00333 0.747049 1.00937 0.753311 0.703316 0.70921 0.715839 0.715429 0.702949 0.709434 0.715412 0.715691 0.715708 0.722123 0.721749 0.721858 0.728299 0.728323 0.734127 0.728086 0.722007 0.728232 1.00937 0.996746 0.859317 0.997049 0.728339 1.00326 0.746939 1.0092 0.722091 0.865652 1.00337 1.00325 1.01556 1.01546 0.734207 0.74075 0.853295 1.01569 0.734422 1.02198 1.02192 0.859303 0.728078 1.02211 0.753359 1.00962 0.734483 1.01538 0.872023 1.0095 1.02196 0.753265 1.02179 1.01565 0.709227 0.996989 0.865694 1.00303 1.00328 0.84673 0.753136 0.715747 0.846892 0.709151 0.996814 0.840836 1.00924 0.715631 0.753375 0.865758 1.00312 1.00955 0.996739 0.709287 0.996889 1.00336 0.853047 1.00943 1.00292 0.715572 1.01576 0.846783 0.759466 1.00934 0.703266 1.01587 1.02809 0.853026 1.02171 0.721986 1.02163 1.01566 0.765856 1.00953 0.72181 0.896831 1.01555 1.01561 1.02163 0.715832 1.02171 0.77164 1.02824 0.903031 1.02825 0.721851 1.02803 1.04059 0.890462 1.03441 0.727902 0.765624 1.03456 0.897116 1.03413 0.721894 1.02797 1.02799 0.765393 1.04073 0.734561 1.03449 0.909225 1.04044 1.04688 0.759458 0.734127 1.0407 1.04683 0.734209 1.04676 1.05291 1.05325 0.75297 1.05326 0.903071 0.740441 1.0404 1.04067 1.04059 0.765865 0.884529 1.04703 1.04682 0.734611 1.04708 0.890804 1.03416 1.02824 0.759433 0.727893 0.884219 0.771895 1.02169 0.903141 0.722094 1.02822 1.03432 0.896957 0.772076 0.728272 1.04074 1.03428 0.890447 1.02832 0.740868 1.028 0.772053 1.02796 1.03452 1.03452 0.740697 1.03449 0.915663 1.04709 0.784255 1.04075 0.7344 1.04682 1.05326 1.05303 1.05313 0.734244 0.909289 1.04076 1.04038 1.04081 0.915421 1.04701 0.778352 0.740585 1.04693 0.921871 1.04674 0.734387 0.996962 0.778322 0.996741 0.922117 0.996812 0.990749 0.740624 1.00317 0.909589 0.790874 1.00308 1.0094 0.746791 1.00289 0.909507 0.990736 0.990681 0.997059 0.784139 0.746727 0.996812 0.896893 1.00932 1.01566 0.790726 0.740773 1.00932 1.02183 0.915745 1.01585 1.01565 0.78449 1.00317 1.0029 0.740483 0.909355 1.01571 1.00956 0.778255 1.0096 0.903255 0.740782 1.00923 0.984383 0.878084 0.746789 0.984425 0.778368 0.990504 0.99072 0.996861 0.747101 0.978015 0.978039 0.971928 0.790489 0.978144 0.984221 0.74664 0.990456 0.984301 0.984554 0.877933 0.996922 0.753083 0.78431 1.00307 0.997044 1.00316 0.74701 1.00929 0.790518 0.872083 1.00311 0.759218 0.990428 0.996728 0.784477 0.990554 0.890504 1.00323 0.752882 0.996833 0.752889 1.00318 0.884203 1.02794 0.753344 1.02197 1.02202 0.878191 0.759422 1.03437 1.02799 1.02183 0.8846 0.75932 1.01586 1.01585 0.759317 1.02809 1.02181 1.02165 1.04053 0.753014 1.04067 0.872115 1.03451 0.753072 1.04703 1.04072 0.765667 1.04669 0.759295 1.0344 0.859382 1.02794 1.02819 0.752928 1.03418 0.75923 0.859464 1.04087 1.03413 0.759269 1.04065 1.01548 0.853372 1.0217 0.759504 1.01561 0.765429 1.00941 1.02826 1.01559 0.765799 1.02201 0.865699 1.00922 0.759546 0.765469 1.00925 1.00304 1.01573 0.877932 0.76543 1.00925 0.759145 0.752881 1.028 0.86563 1.03434 1.02808 0.740586 0.765558 1.04048 1.04044 0.896698 1.03413 1.0221 0.740575 1.01578 0.772081 1.03433 0.746649 0.890454 1.02799 1.02195 0.753065 1.02792 0.765729 0.884447 0.75291 1.06543 1.05931 1.05954 0.903326 1.06572 0.771743 1.06545 0.753297 1.06557 1.05321 1.05956 0.777988 0.903209 1.05337 0.7471 1.06539 1.06568 0.777984 1.05939 0.747002 1.05949 0.89671 1.0719 0.772003 0.753221 1.07169 1.07181 1.07797 0.784257 1.07796 0.753249 1.08418 0.878161 1.07815 0.790695 1.07185 0.759601 1.07163 1.07164 0.759244 1.06581 0.871649 0.797009 0.759569 1.08446 0.871815 1.07835 0.759338 0.790565 1.07796 1.07808 0.890685 0.759595 1.05926 0.77822 1.05932 0.765618 1.05915 0.896942 0.772009 1.06567 0.765844 1.05956 1.07191 0.784156 1.05336 0.884512 0.771817 1.05315 1.05297 0.778252 1.05925 0.771986 1.06552 0.87815 1.05917 0.784208 0.765471 1.07189 1.0779 1.06586 0.765517 1.07796 0.790464 0.890493 0.7658 1.07187 1.08435 0.79044 1.06587 1.07206 1.06582 0.771774 0.715793 1.07188 1.0782 1.09047 0.771878 1.08449 0.88433 1.08447 1.09051 0.77801 1.0905 1.09684 0.902934 1.08435 0.715688 1.09054 1.08442 1.0968 0.890781 1.09068 1.09044 1.09663 0.728231 1.10318 1.09695 1.10336 0.728316 1.10932 1.10933 0.896868 1.10313 0.722035 1.09674 0.7408 1.09696 1.10302 0.89678 1.10943 1.10326 0.740726 0.709471 1.08415 0.909526 1.07826 0.747019 1.09058 1.08439 0.709131 1.09067 0.747059 1.08414 0.903191 0.703151 0.746861 1.07821 1.0844 0.746945 1.09706 0.909158 1.09689 1.0969 0.753192 1.09078 1.10303 1.10332 0.715616 0.90923 1.10946 1.10337 1.09676 0.746808 1.09079 1.10334 1.1155 0.74064 1.09677 0.740379 1.10928 1.05328 0.915837 1.05314 0.752893 1.05323 0.73443 1.05927 1.05942 0.915646 0.753304 1.04663 0.740457 0.747 0.915553 1.04695 1.04688 1.05335 0.753077 1.0595 0.75329 0.7531 1.0594 1.05301 0.921747 1.0658 0.759255 1.07163 0.75921 1.06548 1.06559 1.07209 0.746816 1.078 0.909492 1.07178 1.06553 0.734409 0.759212 1.05955 1.07207 0.728203 0.903164 0.765668 1.06567 0.72791 1.07196 0.759349 1.04705 1.04667 0.740858 1.05288 0.903236 1.05923 0.734336 0.747 1.05333 1.0406 0.734333 1.03458 1.04058 0.753127 1.05311 0.921735 0.740663 1.04686 0.752955 1.04697 1.04087 1.06543 0.909511 1.05957 1.072 0.759316 1.06577 0.709352 1.06559 0.915647 1.05333 0.753229 0.715682 1.05933 1.04691 1.05933 0.759569 0.703154 1.05913 1.05302 1.07806 0.721748 0.928039 1.08436 0.765489 0.715778 1.07798 0.921937 1.08458 0.765496 0.721826 1.09058 0.92823 1.09039 1.07827 0.759577 1.07796 0.921834 0.703258 1.08461 1.08414 0.759136 0.709349 1.08425 0.934437 1.078 1.09044 0.702941 0.927947 1.09675 0.765751 1.09688 0.93432 0.703279 1.0908 1.0971 0.772036 1.10922 1.0969 0.71563 1.10294 1.0906 0.909545 0.765653 1.08448 0.715875 1.09074 1.09693 1.09086 0.709213 0.915432 1.07182 1.07188 0.77169 0.715605 1.07166 0.91555 1.07824 0.759141 1.07826 0.728134 1.07791 1.07187 0.76563 1.06547 0.922037 0.728254 0.771838 0.921829 0.740687 0.765731 1.06539 0.92803 0.772036 0.734212 0.921959 1.07803 0.778239 0.734473 0.940559 0.771866 1.07211 0.740766 1.08423 0.934573 1.08413 1.09044 0.77792 0.721992 1.09695 0.927961 0.772038 0.728246 1.08423 0.946856 0.777982 0.722075 1.0904 0.778165 0.734419 1.07822 0.92831 0.728008 0.784418 1.08425 0.740851 0.784432 1.09043 0.934365 0.746747 0.753293 0.928164 1.09709 0.753253 0.740718 0.759598 1.08417 0.971664 0.934307 0.965765 0.765794 0.972014 0.759184 0.965511 0.978321 0.94041 0.759199 0.765806 0.978354 0.965808 0.759498 0.77172 0.752982 0.765784 0.971844 0.759188 0.94084 0.965771 0.972051 0.978118 0.97169 0.978071 0.772119 0.984175 0.765404 0.98433 0.77197 0.947113 0.765396 0.98446 0.990771 0.996692 0.752985 0.77177 0.940526 0.99066 0.990828 0.765788 0.996645 0.746846 0.772112 0.978203 0.953148 0.984601 0.984621 0.746858 0.772018 0.990813 0.940489 0.990389 0.765641 0.759372 0.946855 0.76543 0.759423 0.952953 0.771928 0.953102 0.765793 0.771865 0.946644 0.753136 0.771845 0.953271 0.959354 0.777895 0.777948 0.947022 0.784241 0.778035 0.922081 0.959469 0.778155 0.777934 0.915504 0.790497 0.959517 0.778237 0.784163 0.921823 0.953263 0.784204 0.790679 0.934193 0.784239 0.78451 0.784181 0.92834 0.777941 0.946702 0.790644 0.765855 0.927993 0.771835 0.940755 0.777886 0.940683 0.784134 0.778058 0.934517 0.959204 0.784261 0.784145 0.778077 0.947004 0.777999 0.78446 0.940383 0.75915 0.790744 0.952934 0.940534 0.784459 0.946653 0.953052 0.746821 0.790449 0.953349 0.790568 0.947083 0.959233 0.753364 0.965779 0.765568 0.940473 0.796776 0.759303 0.965436 0.765637 0.790695 0.934296 0.75321 0.971974 0.803165 0.934573 0.746698 0.977911 0.797016 0.752941 0.971892 0.946819 0.784386 0.74668 0.978215 0.78432 0.940686 0.76555 0.972024 0.79082 0.759308 0.965728 0.790807 0.75919 0.95331 0.965598 0.796631 0.946706 0.753103 0.953242 0.771677 0.796829 0.965675 0.771838 0.959592 0.796979 0.771731 0.959427 0.959381 0.778248 0.803317 0.959549 0.778205 0.965622 0.809408 0.778033 0.971835 0.803013 0.771915 0.946807 0.809219 0.765633 0.965756 0.809236 0.997017 0.777905 1.00306 0.952897 1.00333 0.765776 1.01574 0.771933 1.00925 1.00957 0.996906 0.784495 0.765863 1.00316 0.953092 0.765544 0.797085 0.771907 0.997109 0.959232 0.803001 1.00331 0.771674 0.959184 0.796685 1.00924 1.02211 0.77791 1.01574 1.02803 0.959419 0.815395 1.02791 1.0221 0.809496 0.95298 0.772005 1.00933 1.01586 0.771712 0.971693 1.0154 0.802927 0.778229 0.959281 1.02207 0.796682 0.771671 1.02168 0.96553 0.77163 1.01555 0.978161 0.803038 0.777945 0.984262 0.796851 0.965469 0.78436 0.984168 0.809215 0.978126 0.784488 0.96582 0.984247 0.778166 0.990431 0.965593 0.78421 0.997091 0.778222 0.971969 0.990536 0.784475 0.990751 0.790412 0.965867 0.977935 0.79043 0.971675 0.971772 0.784516 0.971898 0.790672 0.971814 0.984322 0.790584 0.978089 0.796898 0.977918 0.984245 0.790616 1.0033 0.796941 0.978174 0.996996 0.771856 0.972026 0.778175 0.98415 0.777882 0.984589 0.778288 0.978344 0.784246 0.784587 0.78422 0.984255 0.778208 0.990445 0.784587 1.00308 0.784429 0.996981 0.790626 1.00923 0.940795 0.790395 1.00914 1.00324 0.79084 1.00295 0.797119 0.990784 0.790638 0.990541 0.803124 0.997121 0.796625 0.803344 0.99665 0.796921 0.803278 0.79052 0.928279 0.796724 0.947085 0.802955 0.80925 0.796948 0.940556 0.802908 0.803296 0.928304 0.809285 0.809208 0.934505 0.828007 0.809367 0.821744 0.796784 0.953091 0.803106 0.940755 0.796998 0.80303 0.934528 0.80314 0.915582 0.934285 0.809499 0.921837 0.946769 0.797097 0.921674 0.80331 0.90935 0.796784 0.94047 0.927885 0.802998 0.928035 0.947112 0.809224 0.94682 0.809437 0.946878 0.940384 0.815814 0.959268 0.80915 0.953088 0.953043 0.809571 0.953118 0.946697 0.809622 0.953243 0.953196 0.815559 0.934172 0.815791 0.934429 0.815406 0.946788 0.821805 0.940455 0.815875 0.822122 0.815673 0.940598 0.821691 0.815566 0.821801 0.934323 0.828287 0.809562 0.915853 0.809189 0.815535 0.902998 0.821719 0.959354 0.81576 0.827925 0.909595 0.821843 0.959507 0.815611 0.965852 0.921858 0.821676 0.815675 0.815496 0.915687 0.959503 0.821989 0.834414 0.915466 0.828284 0.959586 0.82208 0.821773 0.909493 0.953069 0.827887 0.834602 0.959415 0.822089 0.890444 0.815726 0.828309 0.965811 0.821893 0.897003 0.834279 0.965825 0.828253 0.828353 0.971934 0.902918 0.821786 0.965816 0.834416 0.827908 0.965551 0.834374 0.884425 0.803034 0.971986 0.834209 0.803149 0.965529 0.834275 0.890656 0.797116 0.971976 0.840817 0.809235 0.902992 0.840392 0.809352 0.978334 0.803218 0.909139 0.840706 0.978274 0.959593 0.803336 0.702978 0.971647 0.896666 0.796655 0.965434 0.971903 0.709355 0.92197 0.96584 0.796839 0.978138 0.971925 0.809623 0.702939 0.965439 0.971947 0.809424 0.927991 0.977943 0.709449 0.984276 0.978055 0.802976 0.984405 0.928294 0.709409 0.821923 0.977897 0.921921 0.721829 0.934612 0.971762 0.815579 0.984487 0.709463 0.815438 0.984429 0.990819 0.940436 0.990598 0.984352 0.990592 0.996707 0.927946 0.815849 0.99057 0.996785 0.828068 0.996856 0.915779 0.721875 0.977894 0.828237 0.722026 0.909227 0.971957 0.828246 0.715851 0.902942 0.71587 0.821834 0.978323 0.721837 0.928154 0.815485 0.984361 0.727936 0.921643 0.984473 0.734199 0.822015 0.990752 0.728061 0.81542 0.909185 0.978029 0.734156 0.828256 0.915469 0.746736 0.98414 0.821995 0.740658 0.984289 0.915761 0.734325 0.828331 0.746686 0.965592 0.840795 0.959255 0.740522 0.990765 0.965571 0.727882 0.840522 0.990638 0.953016 0.734178 0.996725 0.965426 0.846897 0.72814 0.996695 0.978021 0.746708 0.990715 0.971765 0.853098 0.740771 0.984305 0.95962 0.740621 1.00327 0.846726 0.746764 0.953362 0.996876 0.703224 0.834518 0.997084 0.703049 1.00303 0.709364 0.840761 0.946719 1.00288 0.715779 0.834433 0.96578 0.709502 0.997095 0.846962 1.0031 0.959233 0.721677 0.846958 1.00918 0.953346 0.709147 0.84068 1.0095 0.859549 0.990843 0.965514 0.853313 0.990732 0.97833 0.996858 0.853101 0.984457 0.728002 1.00303 0.978175 0.721689 0.865786 0.996766 0.984135 0.865399 0.728299 0.990509 1.00333 0.86563 1.00303 0.734168 0.98461 1.0032 0.859236 1.0033 0.728203 0.990768 1.00927 0.85948 1.00935 0.734489 1.00937 0.85322 0.971965 1.00947 0.747053 0.852991 0.959197 1.00309 0.740554 0.859204 1.01585 0.734372 0.865503 0.972088 1.00932 0.740448 1.01559 0.865429 0.734543 1.02205 0.728108 1.01567 0.840563 1.01568 0.978329 1.02173 1.02192 0.734325 1.02795 0.834217 0.965759 0.740469 0.953266 0.834202 0.746643 0.947089 0.740757 0.978057 0.846627 0.959547 0.746725 0.947101 0.95297 0.840657 0.940465 0.753038 0.959625 0.840444 0.940516 0.759315 0.965861 0.934196 0.846698 0.971718 0.76544 0.947007 0.834298 0.759618 0.978181 0.952978 0.765853 0.840659 0.971772 0.946882 0.759388 0.83454 0.97211 0.934558 0.753278 0.846699 0.977977 0.759343 0.922069 0.984506 0.846686 0.753075 0.978294 0.84062 0.921868 0.752924 0.852921 0.971928 0.940381 0.765542 0.859211 0.965695 0.759226 0.934348 0.853361 0.978102 0.7655 0.928333 0.865543 0.98458 0.859146 0.772085 0.928155 0.859185 0.959447 0.77819 0.853202 0.984348 0.953278 0.847122 0.772073 0.965504 0.852994 0.778147 0.977934 0.959526 0.859373 0.778057 0.95939 0.859343 0.784504 0.971633 0.771924 0.947056 0.796955 0.997112 0.771674 0.940438 0.990538 0.778211 0.79705 0.984243 0.7782 0.790744 0.990527 0.93449 0.784344 0.802905 0.940646 0.990384 0.784418 0.803317 0.997041 0.753327 0.953173 0.996706 0.759602 0.796638 0.947091 0.747028 0.790768 0.759321 0.953038 0.984512 0.765811 0.790756 0.946894 0.977915 0.765569 1.03461 0.802993 1.03439 0.77193 0.796869 1.03451 0.746859 1.04042 0.990739 0.815498 0.990668 0.809568 1.04038 0.753293 0.809166 0.984266 1.02816 0.753242 0.822009 0.996769 0.765726 0.822016 1.02194 0.765458 0.822074 0.990418 1.02799 0.765823 0.815437 1.03432 0.996958 0.81558 0.759553 1.02789 0.809212 0.771932 0.997095 1.03452 0.809422 0.771909 0.990499 0.802992 0.777881 1.04672 1.00302 0.777939 0.822008 1.04667 1.00305 0.809292 0.784145 1.05921 0.996703 0.815756 0.790454 1.05301 1.00322 0.784326 0.784616 1.05322 0.996653 0.784436 0.777881 1.00307 1.0405 0.790639 0.772011 1.0092 0.784189 1.04055 0.796871 1.0093 0.790819 0.784342 1.03423 1.0094 0.790422 0.797023 1.04706 1.00937 0.790668 0.7843 1.01547 1.04671 0.790628 0.778357 1.01574 0.778292 1.04059 1.02201 0.784136 1.04664 0.796949 0.990504 1.01557 0.796928 1.01553 0.790823 0.984515 1.00954 0.802955 0.721866 1.00303 1.02171 0.803163 1.02176 0.99047 0.715839 0.809292 1.00337 1.00959 0.809379 1.00335 0.996693 0.81584 1.00915 1.00293 0.809296 1.01551 1.00922 0.815661 1.0096 0.715524 0.809615 1.02809 1.00313 0.803304 0.728218 1.03438 1.01562 0.803351 0.721818 1.03448 1.01586 0.815537 0.715673 1.02826 1.00914 0.809444 0.727927 1.04068 1.00334 0.815555 1.04071 0.734165 0.996705 0.834279 1.02173 0.728029 1.01566 0.740644 1.02207 0.827975 1.02175 1.01558 1.00315 0.83446 0.746669 1.02834 1.00948 0.828027 1.03427 0.753011 0.840448 1.00946 1.02802 0.840625 1.02203 0.747065 1.0283 0.834556 1.05936 0.740772 0.827903 1.02811 1.06562 0.821724 0.740532 1.02202 0.828227 1.05298 0.746676 1.0217 1.05915 0.840737 0.734292 1.06568 1.03424 0.83424 0.752905 1.02809 1.07199 0.834578 1.00938 0.753021 1.06553 0.846769 1.01549 0.746965 1.01561 0.853306 1.05333 0.715494 1.02798 0.846921 1.05306 0.709407 1.02165 0.859255 1.05934 0.853124 1.02212 1.05917 0.703239 0.853133 1.02173 0.728143 1.07194 0.846627 1.02788 0.721884 0.840619 0.721787 1.08427 1.02833 0.840739 0.709371 1.02172 1.07791 0.853244 1.03445 0.709276 1.07792 0.852951 1.03455 0.703344 0.847028 1.02805 1.08449 0.82187 0.703292 1.03444 1.09058 0.828152 0.721658 1.02812 0.715409 1.06582 1.04077 0.715789 0.822012 1.04068 1.06542 0.709417 0.821816 1.0346 1.0593 0.828292 0.740745 1.04699 1.06581 0.834484 0.728308 1.0717 0.834532 1.04078 0.734152 1.07163 1.0467 0.834241 0.734149 1.05305 1.07825 0.828337 0.740793 1.04697 1.07199 0.821668 1.05315 1.0468 0.821684 0.753041 1.0092 1.05305 0.834559 1.04665 0.746684 0.828303 1.02184 1.0596 0.740392 0.827883 1.00925 1.05333 0.840638 1.01545 1.05308 0.727947 1.01556 1.04684 0.734523 1.0408 0.847106 1.01582 0.721947 1.04063 1.02169 0.840485 1.02163 0.734589 1.02834 0.846995 1.01581 0.728303 1.0343 0.852886 1.01539 1.0468 0.846728 0.746785 1.02212 1.0346 0.84044 1.02814 0.740587 1.06585 0.840465 1.02826 1.05953 0.834418 0.74688 1.02811 1.0783 0.846827 0.752929 1.02827 1.07208 1.02807 0.846706 0.759409 1.07194 1.03416 0.84079 1.0529 1.03444 0.703285 0.75934 1.04039 1.0344 0.715438 0.77181 1.03456 0.709156 1.03454 1.05947 0.765568 0.72199 1.05915 1.04054 0.709283 0.765657 1.05334 1.04062 0.721861 0.77209 1.04085 0.996728 0.715592 0.759167 1.02209 0.703287 0.996923 0.709219 0.752919 1.01574 0.990526 0.71587 1.02818 1.00333 0.70938 0.765623 0.721976 1.00297 1.03428 0.709167 0.759242 0.715866 0.984528 1.02208 0.722051 0.772061 1.03449 0.984447 0.765551 0.727876 1.02821 0.971871 1.03416 0.771945 0.996968 0.734196 1.02807 0.784416 0.72796 1.03461 0.997042 0.73452 0.778113 1.03439 1.00334 0.740651 1.04081 0.777938 0.990501 0.784162 1.04062 0.740561 0.790824 0.990642 1.04077 0.734539 0.734149 1.04676 1.00922 0.790731 0.727929 0.778042 1.0157 1.04699 0.728221 1.00918 0.778304 1.04698 0.728255 0.784126 1.02169 1.0406 0.740742 0.784178 1.02212 1.04685 0.734481 1.01566 0.790476 1.05296 0.709326 0.790508 1.01577 1.05324 0.703106 1.00926 1.04704 0.75914 1.00326 1.05306 0.709466 1.05915 0.765694 0.72193 0.996922 1.04045 0.765409 0.715564 1.00955 0.71571 1.00298 1.04677 0.759297 0.971871 1.04084 0.978209 0.778156 0.703032 1.0407 0.771713 0.715585 0.971717 1.03419 0.777991 0.984468 0.715834 1.05337 0.753252 0.978111 1.04673 1.04704 0.971646 0.753162 0.727892 1.05304 1.04682 0.722067 0.959412 0.759577 1.05309 0.721666 0.965441 1.05916 0.734429 0.759193 0.959319 1.05295 0.734225 0.953178 0.771903 0.734584 0.96539 1.05932 0.728006 0.965638 0.772002 1.05962 0.721689 0.990577 0.765396 0.722018