# vtk DataFile Version 3.0
vtk output
ASCII
DATASET UNSTRUCTURED_GRID
POINTS 44491 float
0 0 0
0.011559 0 0
0.00936831 0.0133255 0
0 0.0131306 0
0 0 0
0.00936831 0.0133255 0
0.011559 0 0
0.0209512 0 0
0.0190868 0.0147632 0
0.0189129 0.0148317 0
0.0101187 0.0139175 0
0.00936831 0.0133255 0
0 0.0131306 0
0.00936831 0.0133255 0
0.0101187 0.0139175 0
0.00800861 0.0284183 0
0 0.0286493 0
0 0.0131306 0
0.0272485 0 0
0.0414843 0 0
0.0394592 0.012739 0
0.0393993 0.0127742 0
0.0308553 0.0115058 0
0.0272485 0 0
0.0255408 0.0160694 0
0.0308553 0.0115058 0
0.0393993 0.0127742 0
0.037324 0.0239876 0
0.0296616 0.0258848 0
0.0255408 0.0160694 0
0.0190868 0.0147632 0
0.0209512 0 0
0.0272485 0 0
0.0308553 0.0115058 0
0.0255408 0.0160694 0
0.0190868 0.0147632 0
0.00800861 0.0284183 0
0.0101187 0.0139175 0
0.0189129 0.0148317 0
0.016813 0.0300937 0
0.0110073 0.0301675 0
0.00800861 0.0284183 0
0 0.0286493 0
0.00800861 0.0284183 0
0.0110073 0.0301675 0
0.00793082 0.0429094 0
0 0.0435561 0
0 0.0286493 0
0.0179914 0.0306569 0
0.016813 0.0300937 0
0.0189129 0.0148317 0
0.0190868 0.0147632 0
0.0255408 0.0160694 0
0.0296616 0.0258848 0
0.0285692 0.0277241 0
0.0179914 0.0306569 0
0.0179914 0.0306569 0
0.0285692 0.0277241 0
0.0320319 0.0359786 0
0.0244478 0.0428912 0
0.0202849 0.0415679 0
0.0179914 0.0306569 0
0.0414843 0 0
0.0504826 0 0
0.0505839 0.0143482 0
0.0503117 0.0144832 0
0.0394592 0.012739 0
0.0414843 0 0
0.848314 0.411066 0
0.855369 0.411806 0
0.860125 0.422322 0
0.859961 0.42273 0
0.849144 0.42585 0
0.844108 0.418053 0
0.848314 0.411066 0
0.432945 0.379636 0
0.438347 0.376708 0
0.446502 0.379688 0
0.445665 0.387801 0
0.436727 0.392181 0
0.43388 0.39074 0
0.432945 0.379636 0
0.037324 0.0239876 0
0.0393993 0.0127742 0
0.0394592 0.012739 0
0.0503117 0.0144832 0
0.0468842 0.0272077 0
0.0434144 0.0279169 0
0.037324 0.0239876 0
0.056724 0.015074 0
0.0599936 0.0131976 0
0.068569 0.0145668 0
0.0686681 0.0257387 0
0.0609575 0.0280792 0
0.059764 0.0276093 0
0.056724 0.015074 0
0.860725 0.436288 0
0.853991 0.437524 0
0.847919 0.429331 0
0.849144 0.42585 0
0.859961 0.42273 0
0.863655 0.430818 0
0.860725 0.436288 0
0.0600884 0 0
0.0698055 0 0
0.0700797 0.0135662 0
0.068569 0.0145668 0
0.0599936 0.0131976 0
0.0600884 0 0
0.860125 0.422322 0
0.870325 0.41696 0
0.874015 0.418905 0
0.875076 0.429953 0
0.874275 0.430837 0
0.863655 0.430818 0
0.859961 0.42273 0
0.860125 0.422322 0
0.745881 0.43758 0
0.751566 0.435464 0
0.758063 0.440104 0
0.75667 0.448003 0
0.749596 0.450965 0
0.743288 0.445782 0
0.745881 0.43758 0
0.0504826 0 0
0.0600884 0 0
0.0599936 0.0131976 0
0.056724 0.015074 0
0.0505839 0.0143482 0
0.0504826 0 0
0.446502 0.379688 0
0.449889 0.377722 0
0.460058 0.383293 0
0.458219 0.391636 0
0.452869 0.393609 0
0.445665 0.387801 0
0.446502 0.379688 0
0.384592 0.902836 0
0.390897 0.896144 0
0.399642 0.899815 0
0.401126 0.904331 0
0.394945 0.912747 0
0.394735 0.91279 0
0.385132 0.907287 0
0.384592 0.902836 0
0.758063 0.440104 0
0.76465 0.437452 0
0.771672 0.444788 0
0.770023 0.450635 0
0.763653 0.452922 0
0.75667 0.448003 0
0.758063 0.440104 0
0.452106 0.370876 0
0.458022 0.368356 0
0.46472 0.372121 0
0.464825 0.380504 0
0.460058 0.383293 0
0.449889 0.377722 0
0.452106 0.370876 0
0.770023 0.450635 0
0.771672 0.444788 0
0.779881 0.441457 0
0.786067 0.449306 0
0.784464 0.453302 0
0.77685 0.456888 0
0.770023 0.450635 0
0.0285692 0.0277241 0
0.0296616 0.0258848 0
0.037324 0.0239876 0
0.0434144 0.0279169 0
0.0394701 0.0383744 0
0.0320319 0.0359786 0
0.0285692 0.0277241 0
0.439147 0.400941 0
0.436727 0.392181 0
0.445665 0.387801 0
0.452869 0.393609 0
0.450463 0.40134 0
0.439147 0.400941 0
0.381419 0.92279 0
0.387748 0.924215 0
0.390063 0.928031 0
0.387644 0.93732 0
0.381211 0.938601 0
0.37357 0.930992 0
0.373514 0.929819 0
0.381419 0.92279 0
0.0402707 0.0397737 0
0.0394701 0.0383744 0
0.0434144 0.0279169 0
0.0468842 0.0272077 0
0.0517635 0.0298402 0
0.0514124 0.0407396 0
0.0462131 0.0425066 0
0.0402707 0.0397737 0
0.766597 0.4317 0
0.772594 0.429367 0
0.780961 0.437572 0
0.779881 0.441457 0
0.771672 0.444788 0
0.76465 0.437452 0
0.766597 0.4317 0
0.458219 0.391636 0
0.460058 0.383293 0
0.464825 0.380504 0
0.470774 0.383309 0
0.472638 0.391257 0
0.46498 0.39661 0
0.458219 0.391636 0
0.394735 0.91279 0
0.394945 0.912747 0
0.404874 0.919795 0
0.401605 0.928625 0
0.390063 0.928031 0
0.387748 0.924215 0
0.394735 0.91279 0
0.0468842 0.0272077 0
0.0503117 0.0144832 0
0.0505839 0.0143482 0
0.056724 0.015074 0
0.059764 0.0276093 0
0.0517635 0.0298402 0
0.0468842 0.0272077 0
0.452869 0.393609 0
0.458219 0.391636 0
0.46498 0.39661 0
0.465073 0.401564 0
0.45889 0.406538 0
0.452805 0.405471 0
0.450463 0.40134 0
0.452869 0.393609 0
0.418492 0.89617 0
0.420395 0.896979 0
0.425901 0.905677 0
0.423626 0.911984 0
0.412732 0.913395 0
0.410166 0.906936 0
0.418095 0.896275 0
0.418492 0.89617 0
0.0517635 0.0298402 0
0.059764 0.0276093 0
0.0609575 0.0280792 0
0.0630132 0.0402345 0
0.0567672 0.0430673 0
0.0514124 0.0407396 0
0.0517635 0.0298402 0
0.744879 0.460094 0
0.748447 0.457584 0
0.759438 0.463632 0
0.756644 0.470319 0
0.74578 0.472271 0
0.743893 0.470969 0
0.744879 0.460094 0
0.478626 0.393574 0
0.472638 0.391257 0
0.470774 0.383309 0
0.479203 0.37794 0
0.485014 0.382291 0
0.484176 0.390611 0
0.478626 0.393574 0
0.425901 0.905677 0
0.436274 0.90452 0
0.440112 0.912766 0
0.433839 0.919101 0
0.42846 0.919335 0
0.423626 0.911984 0
0.425901 0.905677 0
0.0110073 0.0301675 0
0.016813 0.0300937 0
0.0179914 0.0306569 0
0.0202849 0.0415679 0
0.0129579 0.0461686 0
0.00793082 0.0429094 0
0.0110073 0.0301675 0
0.748447 0.457584 0
0.749596 0.450965 0
0.75667 0.448003 0
0.763653 0.452922 0
0.761458 0.462644 0
0.759438 0.463632 0
0.748447 0.457584 0
0.404874 0.919795 0
0.410807 0.9177 0
0.417322 0.926013 0
0.410978 0.934882 0
0.404543 0.933899 0
0.401605 0.928625 0
0.404874 0.919795 0
0 0.0435561 0
0.00793082 0.0429094 0
0.0129579 0.0461686 0
0.0131408 0.0499311 0
0.00275663 0.0573794 0
0 0.0571523 0
0 0.0435561 0
0.46472 0.372121 0
0.471224 0.36835 0
0.478727 0.372447 0
0.479203 0.37794 0
0.470774 0.383309 0
0.464825 0.380504 0
0.46472 0.372121 0
0.410807 0.9177 0
0.412732 0.913395 0
0.423626 0.911984 0
0.42846 0.919335 0
0.423818 0.926054 0
0.417322 0.926013 0
0.410807 0.9177 0
0.761458 0.462644 0
0.763653 0.452922 0
0.770023 0.450635 0
0.77685 0.456888 0
0.775927 0.461808 0
0.768885 0.465572 0
0.761458 0.462644 0
0.0244478 0.0428912 0
0.0320319 0.0359786 0
0.0394701 0.0383744 0
0.0402707 0.0397737 0
0.0333247 0.0506498 0
0.0278597 0.0496549 0
0.0244478 0.0428912 0
0.478727 0.372447 0
0.485127 0.367124 0
0.492281 0.370447 0
0.493091 0.379161 0
0.485014 0.382291 0
0.479203 0.37794 0
0.478727 0.372447 0
0.780961 0.437572 0
0.787705 0.433399 0
0.795138 0.437616 0
0.791947 0.447436 0
0.786067 0.449306 0
0.779881 0.441457 0
0.780961 0.437572 0
0.0129579 0.0461686 0
0.0202849 0.0415679 0
0.0244478 0.0428912 0
0.0278597 0.0496549 0
0.0213691 0.0565085 0
0.0204465 0.0565221 0
0.0131408 0.0499311 0
0.0129579 0.0461686 0
0.423818 0.926054 0
0.42846 0.919335 0
0.433839 0.919101 0
0.440656 0.929911 0
0.43629 0.934945 0
0.427658 0.933177 0
0.423818 0.926054 0
0.00275663 0.0573794 0
0.0131408 0.0499311 0
0.0204465 0.0565221 0
0.0126785 0.0657119 0
0.0125777 0.0657263 0
0.00275663 0.0573794 0
0.802065 0.432182 0
0.813426 0.430587 0
0.816921 0.440251 0
0.807025 0.444729 0
0.799904 0.436259 0
0.802065 0.432182 0
0.493091 0.379161 0
0.492281 0.370447 0
0.499613 0.365276 0
0.505775 0.369604 0
0.50593 0.376764 0
0.496557 0.38116 0
0.493091 0.379161 0
0.44139 0.871928 0
0.450336 0.870192 0
0.455427 0.88088 0
0.450058 0.88735 0
0.440928 0.882508 0
0.44139 0.871928 0
0 0.0571523 0
0.00275663 0.0573794 0
0.0125777 0.0657263 0
0.00666652 0.0734426 0
0 0.0738557 0
0 0.0571523 0
0.795138 0.437616 0
0.799904 0.436259 0
0.807025 0.444729 0
0.80582 0.449582 0
0.799602 0.452259 0
0.791947 0.447436 0
0.795138 0.437616 0
0.0126785 0.0657119 0
0.0204465 0.0565221 0
0.0213691 0.0565085 0
0.0290184 0.0643165 0
0.0235194 0.0727431 0
0.0231947 0.0727925 0
0.0126785 0.0657119 0
0.450336 0.870192 0
0.453382 0.865918 0
0.462671 0.866751 0
0.466463 0.873976 0
0.463523 0.879936 0
0.455427 0.88088 0
0.450336 0.870192 0
0.783363 0.468871 0
0.775927 0.461808 0
0.77685 0.456888 0
0.784464 0.453302 0
0.792025 0.463381 0
0.789293 0.467994 0
0.783363 0.468871 0
0.440928 0.882508 0
0.450058 0.88735 0
0.450318 0.889484 0
0.445989 0.896701 0
0.439278 0.897965 0
0.433894 0.891266 0
0.434315 0.886289 0
0.440928 0.882508 0
0.478626 0.393574 0
0.484176 0.390611 0
0.491404 0.394599 0
0.492104 0.401811 0
0.48303 0.406083 0
0.47896 0.404183 0
0.478626 0.393574 0
0.784464 0.453302 0
0.786067 0.449306 0
0.791947 0.447436 0
0.799602 0.452259 0
0.797632 0.461576 0
0.792025 0.463381 0
0.784464 0.453302 0
0.0213691 0.0565085 0
0.0278597 0.0496549 0
0.0333247 0.0506498 0
0.0367467 0.054922 0
0.0328665 0.0637881 0
0.0290184 0.0643165 0
0.0213691 0.0565085 0
0.455427 0.88088 0
0.463523 0.879936 0
0.467901 0.886968 0
0.462529 0.895221 0
0.450318 0.889484 0
0.450058 0.88735 0
0.455427 0.88088 0
0.0402707 0.0397737 0
0.0462131 0.0425066 0
0.0459948 0.0546883 0
0.0367467 0.054922 0
0.0333247 0.0506498 0
0.0402707 0.0397737 0
0.797632 0.461576 0
0.799602 0.452259 0
0.80582 0.449582 0
0.813578 0.457206 0
0.81324 0.460003 0
0.802932 0.464848 0
0.797632 0.461576 0
0.0462131 0.0425066 0
0.0514124 0.0407396 0
0.0567672 0.0430673 0
0.0571359 0.0532651 0
0.0549279 0.0547645 0
0.0461366 0.0548009 0
0.0459948 0.0546883 0
0.0462131 0.0425066 0
0.462529 0.895221 0
0.463126 0.898451 0
0.457161 0.905944 0
0.452419 0.905451 0
0.445989 0.896701 0
0.450318 0.889484 0
0.462529 0.895221 0
0.46498 0.39661 0
0.472638 0.391257 0
0.478626 0.393574 0
0.47896 0.404183 0
0.473411 0.406427 0
0.465073 0.401564 0
0.46498 0.39661 0
0.0567672 0.0430673 0
0.0630132 0.0402345 0
0.0664352 0.0412416 0
0.0691243 0.0522269 0
0.0653036 0.0549723 0
0.0571359 0.0532651 0
0.0567672 0.0430673 0
0.466463 0.873976 0
0.475617 0.873358 0
0.480204 0.881392 0
0.475882 0.887588 0
[...]
CELL_DATA 6400
FIELD FieldData 3
weight 1 6400 float
 0.050327 0.0504374 0.050402 0.0506073 0.0506574 0.0505306 0.0505066 0.0504769 0.0505839 0.050686 0.0507 0.0530791 0.0530412 0.0507555 0.0509031 0.0531263 0.0508472 0.0530214 0.0535283 0.0507723 0.0530426 0.0535724 0.0535282 0.0529849 0.0535272 0.0507539 0.0531044 0.0533585 0.0508578 0.0534593 0.0530466 0.0534492 0.0508467 0.0531059 0.0535784 0.0509432 0.0536982 0.0530267 0.0535566 0.0505827 0.0536156 0.0534278 0.0505422 0.0529783 0.0534897 0.0536147 0.0507913 0.052967 0.0534526 0.0507019 0.0534436 0.0506605 0.0533736 0.0529635 0.0538173 0.0506113 0.0534526 0.0507835 0.0538558 0.0536054 0.0537121 0.0530959 0.0535394 0.0508245 0.0537477 0.0508828 0.0535199 0.0509639 0.0536709 0.0531017 0.0510492 0.0538009 0.0537835 0.0530297 0.0509465 0.053861 0.0510418 0.0537163 0.0530864 0.0511019 0.0538019 0.0531652 0.0536969 0.050974 0.0532031 0.0536446 0.0509153 0.0531748 0.0509733 0.053879 0.0536977 0.0510285 0.0532549 0.0537898 0.0510683 0.0532747 0.0536789 0.0510068 0.0531831 0.0538305 0.0537402 0.051046 0.0535569 0.051136 0.0531607 0.0536168 0.0536084 0.0511603 0.0532481 0.0537042 0.0536141 0.0510807 0.0532549 0.0511285 0.0535736 0.053493 0.0511742 0.0534574 0.0536647 0.0532349 0.0512192 0.0535206 0.0534342 0.0511848 0.0538075 0.0535575 0.0512332 0.0534174 0.0537137 0.0536002 0.0537654 0.0535304 0.0533754 0.0534539 0.05343 0.0533599 0.0532885 0.0531902 0.0534657 0.0532682 0.0533796 0.051111 0.0532591 0.0532938 0.0535316 0.0532274 0.053323 0.051283 0.0530928 0.0533951 0.0535967 0.0511083 0.0531589 0.0533596 0.0511735 0.0535125 0.0531962 0.053297 0.051233 0.053378 0.0534145 0.0532178 0.053278 0.051226 0.0533616 0.0532391 0.0532505 0.0531155 0.0533838 0.0511712 0.0531505 0.0534976 0.0535664 0.0512878 0.0529108 0.0534654 0.0512784 0.0534741 0.0530108 0.0535668 0.0529285 0.0513313 0.0536737 0.052967 0.0534768 0.0535661 0.053041 0.0514138 0.0537119 0.0531632 0.0513752 0.0536551 0.0530799 0.0537253 0.0513749 0.0531561 0.0534608 0.0529728 0.0536234 0.0513276 0.0533662 0.0530762 0.0536713 0.0529892 0.0514751 0.053333 0.0533825 0.0538292 0.0507595 0.0534545 0.0534347 0.0506852 0.0537607 0.0535544 0.0533652 0.0508809 0.0538297 0.0533145 0.0534325 0.050907 0.0533192 0.0535834 0.0507385 0.0526852 0.0532736 0.0508266 0.0536744 0.0527496 0.0534496 0.0510027 0.0536606 0.0533785 0.0509528 0.0526199 0.0537926 0.0510333 0.0533353 0.0527039 0.0537716 0.0532855 0.0528093 0.0511955 0.0533401 0.0526241 0.0511282 0.0533563 0.0533346 0.0525448 0.0510626 0.0532302 0.0533754 0.0511167 0.0524643 0.0531969 0.0534346 0.0512311 0.0532162 0.0512355 0.0523638 0.0507885 0.0530133 0.0534768 0.0525473 0.0531187 0.0508795 0.0530221 0.053438 0.0510147 0.0523762 0.0530265 0.0533537 0.0508412 0.052452 0.0531269 0.0509429 0.0533286 0.0532213 0.0529007 0.0510784 0.0532526 0.053458 0.0528393 0.0511669 0.0531467 0.0526835 0.053415 0.0511418 0.0530241 0.0527527 0.051289 0.0535564 0.0531144 0.0529413 0.0530427 0.0512018 0.0527773 0.0536575 0.05303 0.0528858 0.0512543 0.0535624 0.0526656 0.0513712 0.0535552 0.0538855 0.0525573 0.0513525 0.0524613 0.0537747 0.0538704 0.0512658 0.0526752 0.0536562 0.0513251 0.0539761 0.0527925 0.0537628 0.0514156 0.0540891 0.0525703 0.051396 0.0537539 0.0522675 0.0513014 0.0540096 0.053624 0.0514587 0.0520495 0.0540239 0.0514318 0.0535443 0.0520418 0.0538492 0.0513864 0.0521503 0.0535295 0.053959 0.0514704 0.0522738 0.053923 0.0515123 0.0523482 0.0536059 0.0515186 0.0539643 0.0521753 0.0540376 0.0537341 0.0519556 0.0516025 0.0540926 0.0518666 0.0515593 0.0536517 0.0540976 0.0517361 0.0513341 0.0519343 0.0542035 0.0537117 0.052078 0.0514508 0.0541318 0.0518027 0.0520734 0.0514975 0.0523769 0.0543054 0.0520279 0.0514783 0.052257 0.0542483 0.0520714 0.0513918 0.0524843 0.0520599 0.0542052 0.0515978 0.0520189 0.0522834 0.0542232 0.0515385 0.0521206 0.0541595 0.0523821 0.0515568 0.0521594 0.0543175 0.0519884 0.0516116 0.0521115 0.0542726 0.0521364 0.0516383 0.0520459 0.0519277 0.0543443 0.052006 0.0518561 0.0516525 0.0520498 0.0521386 0.0538504 0.0519977 0.0517766 0.0522112 0.0520952 0.0539454 0.0520593 0.0516989 0.0521436 0.0519896 0.0538761 0.052143 0.0540586 0.0517498 0.0529626 0.0520934 0.0540048 0.0512289 0.0530053 0.0512674 0.0539743 0.0522149 0.0530693 0.0513254 0.0521815 0.0538695 0.0512812 0.0528695 0.052212 0.0513488 0.0539579 0.0531378 0.0522772 0.0513132 0.0539204 0.0530146 0.0514279 0.0522395 0.0540654 0.0527455 0.0513193 0.0522428 0.0540899 0.0513682 0.0526311 0.0522748 0.0514101 0.054141 0.0526948 0.0521876 0.0514525 0.0540309 0.0513809 0.052182 0.0528038 0.0541782 0.0514574 0.0521514 0.0542302 0.0529293 0.0514904 0.0522231 0.0541208 0.0514045 0.0522656 0.0528813 0.0542911 0.0515068 0.0522484 0.0527642 0.054345 0.0515123 0.0522027 0.0541737 0.0514508 0.0532266 0.0542046 0.0522261 0.0514672 0.0519918 0.0542468 0.0531026 0.0520275 0.0515069 0.0542886 0.051952 0.0531073 0.0543152 0.0515603 0.0519728 0.0515808 0.0533214 0.0520981 0.054346 0.0515874 0.0520788 0.0543873 0.0532078 0.0515213 0.0520638 0.0520185 0.054409 0.0515766 0.0532812 0.0519231 0.0544224 0.051592 0.0519909 0.0531797 0.0516602 0.0519512 0.0518947 0.0520122 0.0520682 0.0520414 0.0519797 0.0521355 0.0521176 0.0522003 0.0521841 0.0530171 0.0521558 0.0522004 0.0543542 0.0516646 0.0521059 0.0529729 0.0521228 0.0545329 0.0516883 0.0514509 0.0528577 0.0520685 0.0545826 0.0514103 0.0521276 0.0544765 0.0514943 0.053058 0.0521593 0.0515371 0.0543783 0.0514931 0.0521849 0.052944 0.0544827 0.0515372 0.0521591 0.0544464 0.0525543 0.0515664 0.0545389 0.0523235 0.0516127 0.0524402 0.0545941 0.0515302 0.0523042 0.0545629 0.0522909 0.0515742 0.0523325 0.0546194 0.0526103 0.0516117 0.0522966 0.0523261 0.0515701 0.0524962 0.0523527 0.054693 0.0516429 0.0523513 0.0523564 0.0516775 0.0522065 0.0522846 0.0546731 0.0516451 0.0520578 0.0522685 0.054772 0.0516157 0.0523119 0.0524281 0.051684 0.0523432 0.0547253 0.0522793 0.0516531 0.0523294 0.0546324 0.0521348 0.0517196 0.0522938 0.054675 0.0522143 0.0517601 0.0546495 0.0523777 0.0527045 0.051682 0.0523754 0.0547541 0.0517229 0.0525227 0.0547144 0.0517561 0.0525761 0.0547333 0.0524126 0.0517288 0.0526733 0.0544106 0.0517988 0.0524005 0.052797 0.0544469 0.0517773 0.0545234 0.0524216 0.0528599 0.0545182 0.0524001 0.0518021 0.0546008 0.0523906 0.0526027 0.0545948 0.052376 0.0524427 0.0518397 0.0544176 0.0523621 0.052365 0.0515917 0.0544489 0.0523497 0.052291 0.0523793 0.0544909 0.0515523 0.0525297 0.0545169 0.0524164 0.0516284 0.0523759 0.054582 0.0516866 0.0524075 0.0546249 0.0525322 0.0516817 0.0523992 0.0545508 0.0526258 0.0516398 0.0546914 0.0522595 0.0524866 0.0516884 0.0546891 0.0522329 0.0526766 0.0517595 0.0522518 0.0547748 0.0525799 0.0517645 0.0522127 0.0547648 0.0527091 0.0517026 0.0547509 0.0523065 0.0527585 0.0517248 0.0546599 0.0522753 0.0517929 0.0522845 0.0527583 0.0547332 0.0517589 0.0522414 0.0518239 0.0546791 0.0522114 0.0529046 0.0518363 0.054822 0.0529044 0.0521913 0.0547555 0.051784 0.0522856 0.0528313 0.0522714 0.0548089 0.0517277 0.0529794 0.0522361 0.0517371 0.052677 0.0539632 0.0522529 0.0518188 0.0527957 0.0523392 0.053999 0.0518375 0.0523436 0.0528414 0.0539916 0.0528765 0.0523126 0.0518561 0.054103 0.0529513 0.0523709 0.0519247 0.0527831 0.0540733 0.0529118 0.0523894 0.0518976 0.0539566 0.0523659 0.0530341 0.0518392 0.0523607 0.054027 0.0530401 0.0519557 0.052334 0.0523197 0.0518944 0.053135 0.0539487 0.0518991 0.052313 0.0531082 0.0540975 0.0522988 0.0519595 0.0529702 0.0541777 0.0523565 0.0540564 0.0531802 0.0520158 0.0541355 0.0523469 0.0517513 0.05299 0.051927 0.0542072 0.0517924 0.0518641 0.0542801 0.0532323 0.0518218 0.0518347 0.0541745 0.0531332 0.0518663 0.0518997 0.054309 0.0531886 0.0518672 0.0520197 0.0543995 0.0518457 0.0530557 0.0519595 0.0519247 0.0543778 0.0520004 0.053279 0.0518939 0.0542057 0.0519372 0.0542879 0.0518061 0.0533209 0.0518489 0.0518677 0.0542396 0.0518325 0.0518942 0.0543158 0.0517718 0.0533858 0.0543448 0.0519105 0.0519473 0.0534689 0.0543975 0.05197 0.0519366 0.051872 0.0533496 0.0519393 0.0539999 0.0520952 0.0519957 0.0535593 0.0539697 0.0520475 0.0519455 0.0534416 0.0541008 0.0520257 0.0519245 0.0540679 0.0532669 0.0520804 0.054135 0.0520053 0.0533231 0.0541656 0.0534557 0.051984 0.0521426 0.0540326 0.0520522 0.0533079 0.0519884 0.053548 0.0521151 0.0520911 0.0519964 0.0533917 0.0539312 0.0520543 0.0519324 0.0535626 0.0519917 0.0539715 0.0519031 0.053433 0.0519667 0.0541833 0.0520467 0.0520378 0.0540773 0.053649 0.0521031 0.0520093 0.0536764 0.054051 0.0520457 0.0520315 0.0535732 0.054164 0.0520577 0.0517936 0.0536887 0.0543245 0.0517373 0.0521247 0.0529715 0.0516989 0.0542124 0.0518411 0.0531177 0.05427 0.0520932 0.0517707 0.053051 0.0542381 0.0509804 0.051819 0.0530577 0.0543719 0.0517404 0.0531452 0.0510359 0.0516611 0.0544294 0.0508798 0.053165 0.0516939 0.0543317 0.0511025 0.0532495 0.0516197 0.054426 0.0509325 0.0532176 0.0515881 0.0510733 0.0542759 0.053281 0.0516458 0.0511784 0.0542644 0.0533881 0.0517753 0.0511828 0.0543672 0.0533952 0.0517302 0.0513696 0.0531262 0.0543558 0.0517421 0.0532296 0.051261 0.0518795 0.0545018 0.0532626 0.0519081 0.0513274 0.0533472 0.0544717 0.051944 0.0514395 0.0532103 0.0545343 0.0518439 0.0512988 0.0532821 0.054601 0.0518764 0.0514374 0.0534154 0.0546338 0.0519725 0.0514713 0.0533126 0.0545709 0.0519964 0.0510232 0.0533524 0.0545025 0.0509876 0.0519695 0.051938 0.0512621 0.0544351 0.0534747 0.0511392 0.0518026 0.0544494 0.0535107 0.0511753 0.0545973 0.0518293 0.053449 0.0510682 0.0545501 0.0517846 0.0512913 0.0546519 0.0535657 0.051912 0.0513686 0.0535311 0.0547408 0.0518436 0.0516123 0.053423 0.0546764 0.0518903 0.0514924 0.0547131 0.0535361 0.0521704 0.0515443 0.0546639 0.0535109 0.0522084 0.0514309 0.0536331 0.0548225 0.0521486 0.0515239 0.0536466 0.0522437 0.0547763 0.0514052 0.0537864 0.0522178 0.0547903 0.0516165 0.0521998 0.0536723 0.054687 0.0521208 0.0515802 0.0547065 0.0538784 0.0520971 0.0515339 0.0547482 0.0537838 0.0520684 0.0547693 0.0516439 0.0537699 0.0520838 0.0548366 0.0538834 0.0515821 0.0521917 0.0521679 0.0535885 0.0516439 0.0548272 0.0521368 0.0537114 0.0516989 0.0545193 0.0521672 0.0537489 0.0544754 0.0517008 0.0523012 0.0536697 0.054535 0.0517453 0.0522813 0.0522682 0.0546123 0.0522801 0.0538201 0.0546712 0.0523401 0.0517974 0.0546429 0.0539005 0.0545776 0.0523107 0.0537981 0.0518422 0.052238 0.0544801 0.0522546 0.0518328 0.0539813 0.0544417 0.0517802 0.0521897 0.0538753 0.0545308 0.0522116 0.0518822 0.0545856 0.0540065 0.0517564 0.0522892 0.0546254 0.053948 0.0516536 0.0523 0.0545665 0.0540925 0.0518116 0.0522661 0.0547854 0.051716 0.0540692 0.0522404 0.0547502 0.0517939 0.054734 0.0535769 0.052053 0.0517091 0.0518452 0.0520302 0.0548136 0.0535013 0.0521395 0.0519455 0.0548139 0.0521091 0.0546768 0.0518706 0.0536668 0.0520848 0.0547541 0.0520071 0.0520647 0.0536267 0.0519223 0.0519529 0.0546675 0.0536752 0.0519787 0.0547089 0.0519561 0.0537369 0.0518939 0.054824 0.0537584 0.0519189 0.0520378 0.0547758 0.0520432 0.0537552 0.051118 0.0520105 0.0512262 0.0538118 0.0548268 0.0519825 0.0513279 0.0538346 0.0547965 0.0520078 0.0538617 0.0514274 0.0521708 0.0548479 0.0539417 0.0511537 0.0521544 0.0539221 0.0512888 0.0548807 0.0521215 0.0513346 0.0548957 0.0537767 0.0522163 0.0548599 0.0514226 0.0538366 0.0522491 0.0515253 0.0548002 0.0538621 0.0522084 0.0548402 0.0517167 0.0537888 0.0522162 0.0548947 0.051621 0.0520764 0.0539533 0.0549292 0.0521032 0.0515268 0.053897 0.0548786 0.0521335 0.0540164 0.0516309 0.0549298 0.0517203 0.054003 0.0520707 0.0511855 0.0539489 0.0521781 0.0549271 0.051471 0.0549604 0.0540297 0.0521329 0.0513338 0.0549361 0.0540736 0.0512243 0.0521161 0.0549738 0.0541071 0.0513503 0.0549619 0.0521667 0.054942 0.0514803 0.0524567 0.0549648 0.0538111 0.0515332 0.0549757 0.0524359 0.0516294 0.0538867 0.0549726 0.052435 0.0517248 0.054989 0.0538642 0.0549865 0.051597 0.0524681 0.0539387 0.0549867 0.0524699 0.051694 0.0539937 0.0548319 0.0524483 0.0540459 0.0515967 0.052469 0.0548474 0.0539698 0.0524485 0.0518166 0.0548265 0.0524491 0.0539159 0.0548991 0.0517956 0.0524309 0.0549135 0.0539946 0.0517117 0.0524261 0.0548863 0.0518703 0.0524427 0.0548863 0.0539692 0.0524679 0.0517996 0.0548668 0.0541092 0.0524642 0.0518854 0.0549342 0.0540675 0.0519428 0.0524842 0.0549179 0.0540929 0.0520128 0.0549304 0.0524931 0.0541461 0.0549505 0.0524877 0.0540806 0.0519268 0.0549725 0.0541705 0.0549354 0.0520463 0.0525078 0.0541727 0.0549773 0.0520328 0.0525183 0.0542694 0.0549874 0.0525125 0.0521367 0.0549965 0.0542209 0.0524892 0.0520874 0.0549697 0.0524822 0.0541764 0.0518949 0.0549592 0.052509 0.0542725 0.051814 0.0549655 0.0525205 0.0549906 0.054256 0.0519606 0.0524999 0.0550087 0.0519834 0.0543205 0.0549852 0.0525172 0.0520312 0.0543794 0.0550118 0.0524174 0.0519005 0.0539703 0.0524245 0.0549767 0.0520588 0.0540607 0.0523992 0.0549769 0.0524537 0.0540079 0.051991 0.0524202 0.0549756 0.054085 0.0524483 0.0520995 0.0541587 0.0549385 0.0523844 0.0541402 0.0549678 0.0521482 0.0524123 0.0541771 0.0549575 0.0523807 0.0521157 0.0549876 0.0542216 0.0549692 0.0523764 0.0521886 0.0542821 0.0524389 0.0549844 0.0542696 0.05497 0.0522355 0.0542346 0.0524395 0.054946 0.0543325 0.0519078 0.0549674 0.0524204 0.0541186 0.0524082 0.0519276 0.0542028 0.0548966 0.0524773 0.0519308 0.0549091 0.0542859 0.0524626 0.0520423 0.054928 0.0541962 0.0524744 0.0519809 0.0524723 0.0541761 0.0524882 0.0548404 0.0519865 0.054277 0.0548857 0.0525113 0.051975 0.0543129 0.054853 0.0524916 0.0520371 0.0549373 0.0543636 0.0525041 0.0520674 0.054897 0.0544207 0.052463 0.0520474 0.0549426 0.0543856 0.0524611 0.0549027 0.052102 0.0524964 0.0544594 0.0519996 0.0548346 0.0524794 0.0545069 0.0519758 0.0548423 0.0524763 0.0520776 0.0542783 0.0549898 0.0525297 0.0543564 0.0520765 0.0549948 0.0525363 0.0543837 0.0520483 0.0550022 0.0525317 0.0543326 0.0549789 0.0521288 0.0544597 0.0549907 0.0525531 0.0521315 0.0549747 0.0544279 0.0525458 0.052107 0.0550085 0.0544181 0.0550054 0.0521764 0.052547 0.0544476 0.0521206 0.0550006 0.0543525 0.0525546 0.0521913 0.0549795 0.0525464 0.0521711 0.0549899 0.0544799 0.0525393 0.0522301 0.0549529 0.0545414 0.0525306 0.0549329 0.0545123 0.05206 0.0525612 0.054954 0.0525547 0.0521122 0.0545678 0.0549086 0.0521307 0.0525511 0.0544757 0.05214 0.0548615 0.0545159 0.0525752 0.0520842 0.0548931 0.0546028 0.0525694 0.0521701 0.054873 0.0545845 0.0521494 0.054935 0.0545616 0.0526021 0.0549599 0.0521618 0.0546396 0.0549485 0.0521898 0.052589 0.0546059 0.0522062 0.0525874 0.0548623 0.0546571 0.0525653 0.052217 0.0545998 0.0548645 0.0525778 0.052259 0.0546712 0.0549093 0.0525616 0.0521597 0.0547337 0.0522293 0.0525948 0.0548511 0.0522258 0.0546726 0.0525829 0.0548884 0.0522006 0.0548627 0.0525968 0.054732 0.0522762 0.0525795 0.0549614 0.0533435 0.052234 0.0549203 0.0525285 0.0534777 0.0523078 0.0549447 0.0525208 0.0522585 0.0534444 0.0549175 0.0525216 0.0522445 0.0533806 0.0548989 0.0525455 0.0534014 0.0522782 0.0525371 0.0548888 0.0534971 0.0549654 0.0535367 0.0522982 0.0524969 0.0549527 0.0525213 0.052291 0.0535732 0.0549384 0.0525108 0.0523226 0.0536838 0.0549899 0.0525385 0.0549827 0.0523403 0.0525359 0.0536305 0.0550003 0.0523728 0.0536352 0.0525349 0.0550114 0.0537472 0.0550075 0.0525613 0.0521064 0.0534493 0.0550118 0.0525809 0.0521492 0.0535407 0.0549952 0.0525594 0.0536205 0.0549774 0.0521905 0.0525606 0.0535139 0.0549834 0.0521814 0.0534905 0.0525989 0.0550062 0.0522475 0.0535717 0.055005 0.0522221 0.0535901 0.0550029 0.0526026 0.0522965 0.05258 0.0536853 0.0548547 0.0522454 0.0537887 0.0526002 0.0548714 0.0522961 0.0536469 0.0525771 0.0548739 0.0523126 0.0537098 0.0525572 0.0549218 0.0537226 0.0522567 0.0525567 0.0549515 0.0538014 0.0523295 0.0549187 0.0526018 0.0538518 0.0549566 0.0522712 0.0549218 0.0537376 0.0523517 0.0526047 0.0548743 0.0539619 0.0525794 0.0522836 0.0538548 0.0548225 0.0525789 0.0522058 0.053787 0.0548633 0.0523569 0.0538998 0.054908 0.0523255 0.0523359 0.0540091 0.0548879 0.0523922 0.0549875 0.0540178 0.0522988 0.0549698 0.052406 0.0549764 0.0523957 0.0540847 0.0523416 0.0523752 0.0549888 0.0523654 0.0523615 0.0541388 0.0550016 0.05239 0.0523285 0.0541166 0.0549681 0.0542195 0.0549427 0.0523131 0.0524425 0.0523512 0.0541967 0.054909 0.0523872 0.0523841 0.0549304 0.0538899 0.052421 0.0523738 0.0539508 0.0549561 0.0523373 0.0524767 0.054955 0.0524344 0.0538866 0.0522785 0.0549173 0.0524538 0.053976 0.0524207 0.0539914 0.0523303 0.0550119 0.0540531 0.055011 0.0523313 0.0524942 0.054153 0.0550125 0.0523663 0.0524655 0.0549887 0.0540729 0.0523822 0.0524846 0.0542519 0.0549842 0.0524275 0.0524697 0.055004 0.052374 0.0540738 0.0524485 0.0550045 0.0523561 0.0541754 0.0524249 0.0549691 0.0524135 0.0523969 0.0550079 0.0542631 0.0523993 0.0550071 0.0524195 0.0541699 0.0524578 0.0549904 0.0524241 0.0535322 0.0549916 0.0524428 0.0524487 0.0535847 0.0549861 0.0522802 0.0535984 0.0524449 0.0549628 0.0536555 0.0523012 0.05242 0.054962 0.0535327 0.0522614 0.0549463 0.0524097 0.0535214 0.0523094 0.0549027 0.0535809 0.0524598 0.0522967 0.0549295 0.0536321 0.0522623 0.0524987 0.0537308 0.0548449 0.0522106 0.0524598 0.0538156 0.0548737 0.0521868 0.0525147 0.0536676 0.0549038 0.0522929 0.0525102 0.0537096 0.0549362 0.0538029 0.0524841 0.0549246 0.0522219 0.0538051 0.0524735 0.0522458 0.0548353 0.053496 0.0522758 0.0548812 0.0535815 0.052494 0.0523406 0.0535578 0.0548178 0.052356 0.0525419 0.0535185 0.0523799 0.0548508 0.0534526 0.0523312 0.0525215 0.0549707 0.0524276 0.0534823 0.0549909 0.0524152 0.052557 0.0549657 0.0536492 0.0523752 0.054937 0.051656 0.053724 0.0524049 0.054933 0.0516885 0.0537887 0.0523609 0.0549442 0.0523227 0.0516106 0.0535706 0.0549082 0.0517246 0.0523085 0.0536616 0.0549133 0.0516775 0.0523963 0.0548898 0.0536607 0.051643 0.0523549 0.054927 0.053888 0.0517766 0.0548789 0.0523863 0.0539062 0.0517149 0.0548506 0.0539875 0.0525135 0.0517687 0.0549219 0.053881 0.0524974 0.0517089 0.0548654 0.0539807 0.0525076 0.0517681 0.0548926 0.0539546 0.0525338 0.0518057 0.0540756 0.0525318 0.0548055 0.0517369 0.0541509 0.0524804 0.054789 0.0517854 0.0524629 0.0548534 0.0518434 0.0542375 0.0524973 0.0518446 0.0548104 0.0542495 0.052517 0.0517674 0.0540596 0.0547708 0.0525327 0.0518372 0.0548368 0.0540414 0.0525278 0.0518376 0.0525566 0.0541471 0.054793 0.0518812 0.0538501 0.0525576 0.0547249 0.0537471 0.0519336 0.0525803 0.0547118 0.0539425 0.0519 0.0525813 0.0518398 0.0539908 0.0525552 0.0537189 0.0518995 0.0538266 0.0539354 0.0518956 0.0526037 0.0539072 0.0519215 0.0538779 0.0526145 0.0540102 0.0519574 0.0539696 0.0526034 0.0541146 0.0519486 0.0540429 0.0525619 0.0540812 0.0520332 0.0525861 0.0540887 0.0539605 0.0520065 0.0525621 0.0540627 0.0519749 0.0525897 0.0539117 0.0540219 0.0517704 0.0518366 0.0538252 0.0542435 0.0526206 0.0518744 0.0540039 0.0543458 0.0518058 0.0525876 0.0539135 0.0543808 0.0518677 0.052452 0.0540092 0.0544393 0.0519329 0.0524479 0.0541458 0.0519134 0.0542955 0.0525224 0.0519053 0.0543925 0.054185 0.0524862 0.0519643 0.0544826 0.0542444 0.05249 0.0518988 0.0525166 0.0541578 0.0544603 0.0518369 0.0524786 0.0542787 0.0545159 0.051867 0.052436 0.0519288 0.0543874 0.0545327 0.0524185 0.0519315 0.0545455 0.0543378 0.052427 0.0519935 0.0540994 0.0524728 0.0519569 0.0545949 0.0525196 0.0546233 0.0520178 0.0541084 0.0524617 0.0519766 0.0542492 0.0543515 0.0525486 0.0542867 0.0519905 0.0543307 0.0525546 0.0519982 0.0544222 0.0541946 0.0525559 0.0544993 0.0541942 0.0520519 0.0525901 0.0543567 0.0520844 0.0538669 0.0520331 0.0544356 0.0525869 0.0537681 0.0544325 0.0520558 0.0525537 0.0537557 0.0545648 0.0520213 0.0525106 0.0546363 0.0538499 0.0520455 0.0545167 0.0539499 0.0525043 0.0545834 0.052106 0.0537658 0.0546595 0.0521196 0.0525443 0.0536491 0.0545892 0.0520827 0.052588 0.0546274 0.0535426 0.0521335 0.0546822 0.0525627 0.0535378 0.0519687 0.0547062 0.0536558 0.0519018 0.0546667 0.0526057 0.0537471 0.0547533 0.0520013 0.0515601 0.0536268 0.0547439 0.051528 0.0519961 0.0547671 0.0515728 0.0540349 0.0520322 0.0516249 0.0538538 0.0520175 0.0547772 0.053