# vtk DataFile Version 3.0
vtk output
ASCII
DATASET UNSTRUCTURED_GRID
POINTS 44482 float
0 0 0
0.0125102 0 0
0.0124207 0.0114417 0
0 0.0120155 0
0 0 0
0.0125102 0 0
0.0248536 0 0
0.0250155 0.011612 0
0.0247159 0.0119361 0
0.01249 0.0115098 0
0.0124207 0.0114417 0
0.0125102 0 0
0 0.0120155 0
0.0124207 0.0114417 0
0.01249 0.0115098 0
0.0123139 0.0235979 0
0.012236 0.023676 0
0 0.0234536 0
0 0.0120155 0
0.499901 0.488724 0
0.499959 0.488662 0
0.512842 0.488863 0
0.512091 0.501717 0
0.500413 0.501239 0
0.499901 0.488724 0
0.0130397 0.0348778 0
0.012236 0.023676 0
0.0123139 0.0235979 0
0.0252646 0.0231714 0
0.0254247 0.0233358 0
0.0251 0.0352251 0
0.0130397 0.0348778 0
0.0123139 0.0235979 0
0.01249 0.0115098 0
0.0247159 0.0119361 0
0.0252646 0.0231714 0
0.0123139 0.0235979 0
0.0248536 0 0
0.0377411 0 0
0.0373213 0.0115965 0
0.0250155 0.011612 0
0.0248536 0 0
0.512842 0.488863 0
0.512902 0.488806 0
0.524603 0.489232 0
0.524829 0.501679 0
0.512274 0.501912 0
0.512091 0.501717 0
0.512842 0.488863 0
0.49963 0 0
0.512533 0 0
0.512444 0.0114712 0
0.512317 0.0115969 0
0.500177 0.0116337 0
0.49963 0 0
0.0377411 0 0
0.0495827 0 0
0.0499394 0.0119036 0
0.0377071 0.0119996 0
0.0373213 0.0115965 0
0.0377411 0 0
0 0.488952 0
0.0128353 0.489435 0
0.0122384 0.501761 0
0 0.501593 0
0 0.488952 0
0.512533 0 0
0.525198 0 0
0.525084 0.0114107 0
0.524847 0.0116351 0
0.512444 0.0114712 0
0.512533 0 0
0.0250155 0.011612 0
0.0373213 0.0115965 0
0.0377071 0.0119996 0
0.0372867 0.0233451 0
0.0254247 0.0233358 0
0.0252646 0.0231714 0
0.0247159 0.0119361 0
0.0250155 0.011612 0
0.524799 0.489059 0
0.537197 0.489716 0
0.537373 0.501658 0
0.52519 0.502033 0
0.524829 0.501679 0
0.524603 0.489232 0
0.524799 0.489059 0
0.0122384 0.501761 0
0.0128353 0.489435 0
0.0131058 0.489178 0
0.0248773 0.4892 0
0.0250357 0.489361 0
0.0249552 0.501466 0
0.0125511 0.502065 0
0.0122384 0.501761 0
0.0495827 0 0
0.0624161 0 0
0.0623608 0.0112222 0
0.0623531 0.0112302 0
0.0499486 0.0119127 0
0.0499394 0.0119036 0
0.0495827 0 0
0.499955 0.0118623 0
0.500177 0.0116337 0
0.512317 0.0115969 0
0.512327 0.0232392 0
0.512305 0.023262 0
0.499796 0.0234743 0
0.499699 0.0233811 0
0.499955 0.0118623 0
0 0.501593 0
0.0122384 0.501761 0
0.0125511 0.502065 0
0.0126951 0.514091 0
0.0125756 0.514212 0
0 0.513987 0
0 0.501593 0
0.500413 0.501239 0
0.512091 0.501717 0
0.512274 0.501912 0
0.51245 0.513674 0
0.499898 0.514326 0
0.499787 0.501832 0
0.500413 0.501239 0
0.0125511 0.502065 0
0.0249552 0.501466 0
0.0249606 0.501472 0
0.0252946 0.514022 0
0.0248196 0.514493 0
0.0126951 0.514091 0
0.0125511 0.502065 0
0.0499486 0.0119127 0
0.0623531 0.0112302 0
0.0625531 0.0237591 0
0.0625052 0.0238056 0
0.050198 0.0230451 0
0.0499486 0.0119127 0
0.499796 0.0234743 0
0.512305 0.023262 0
0.51257 0.034917 0
0.500107 0.035408 0
0.499796 0.0234743 0
0.0254247 0.0233358 0
0.0372867 0.0233451 0
0.0376379 0.0236904 0
0.0372845 0.0355488 0
0.0251576 0.035287 0
0.0251 0.0352251 0
0.0254247 0.0233358 0
0.500575 0.52644 0
0.499804 0.514425 0
0.499898 0.514326 0
0.51245 0.513674 0
0.51257 0.513797 0
0.51244 0.526874 0
0.512289 0.527013 0
0.500575 0.52644 0
0.0376029 0.489146 0
0.0376442 0.489183 0
0.0377805 0.501666 0
0.0249606 0.501472 0
0.0249552 0.501466 0
0.0250357 0.489361 0
0.0376029 0.489146 0
0.512305 0.023262 0
0.512327 0.0232392 0
0.524775 0.0233731 0
0.525025 0.02363 0
0.525201 0.0346288 0
0.524952 0.0348749 0
0.51266 0.0350041 0
0.51257 0.034917 0
0.512305 0.023262 0
0.0377071 0.0119996 0
0.0499394 0.0119036 0
0.0499486 0.0119127 0
0.050198 0.0230451 0
0.0496657 0.0235687 0
0.0376379 0.0236904 0
0.0372867 0.0233451 0
0.0377071 0.0119996 0
0.0249606 0.501472 0
0.0377805 0.501666 0
0.0377964 0.501682 0
0.0373659 0.514281 0
0.0252946 0.514022 0
0.0249606 0.501472 0
0.525013 0.514402 0
0.525154 0.514551 0
0.524684 0.526582 0
0.51244 0.526874 0
0.51257 0.513797 0
0.525013 0.514402 0
0.524775 0.0233731 0
0.524847 0.0116351 0
0.525084 0.0114107 0
0.53743 0.0121144 0
0.537627 0.0229643 0
0.525025 0.02363 0
0.524775 0.0233731 0
0.0496657 0.0235687 0
0.050198 0.0230451 0
0.0625052 0.0238056 0
0.0624045 0.0347605 0
0.0503152 0.0355335 0
0.0501357 0.0353651 0
0.0496657 0.0235687 0
0 0.0350653 0
0.0125423 0.0353826 0
0.0123841 0.0472572 0
0 0.0469212 0
0 0.0350653 0
0.512317 0.0115969 0
0.512444 0.0114712 0
0.524847 0.0116351 0
0.524775 0.0233731 0
0.512327 0.0232392 0
0.512317 0.0115969 0
0.512274 0.501912 0
0.524829 0.501679 0
0.52519 0.502033 0
0.525013 0.514402 0
0.51257 0.513797 0
0.51245 0.513674 0
0.512274 0.501912 0
0.0499271 0.488794 0
0.0619677 0.489441 0
0.0624657 0.501513 0
0.0497114 0.501961 0
0.0496872 0.501938 0
0.0499271 0.488794 0
0 0.0234536 0
0.012236 0.023676 0
0.0130397 0.0348778 0
0.0125423 0.0353826 0
0 0.0350653 0
0 0.0234536 0
0.537599 0 0
0.550028 0 0
0.549952 0.011508 0
0.537527 0.0120204 0
0.537599 0 0
0.0123841 0.0472572 0
0.0125423 0.0353826 0
0.0130397 0.0348778 0
0.0251 0.0352251 0
0.0251576 0.035287 0
0.0246576 0.0466012 0
0.0124206 0.0472934 0
0.0123841 0.0472572 0
0.525013 0.514402 0
0.52519 0.502033 0
0.537373 0.501658 0
0.537616 0.501894 0
0.537331 0.514472 0
0.525154 0.514551 0
0.525013 0.514402 0
0.0376442 0.489183 0
0.0496834 0.488552 0
0.0499271 0.488794 0
0.0496872 0.501938 0
0.0377964 0.501682 0
0.0377805 0.501666 0
0.0376442 0.489183 0
0.537627 0.0229643 0
0.53743 0.0121144 0
0.537527 0.0120204 0
0.549952 0.011508 0
0.550292 0.0118423 0
0.549811 0.0234697 0
0.538183 0.0235247 0
0.537627 0.0229643 0
0 0.0469212 0
0.0123841 0.0472572 0
0.0124206 0.0472934 0
0.0126821 0.0586459 0
0 0.0591868 0
0 0.0469212 0
0.525198 0 0
0.537599 0 0
0.537527 0.0120204 0
0.53743 0.0121144 0
0.525084 0.0114107 0
0.525198 0 0
0.0497114 0.501961 0
0.0624657 0.501513 0
0.0626616 0.501705 0
0.0626634 0.514246 0
0.0504134 0.51409 0
0.0497114 0.501961 0
0.537197 0.489716 0
0.537807 0.489122 0
0.549864 0.489468 0
0.549678 0.501788 0
0.537616 0.501894 0
0.537373 0.501658 0
0.537197 0.489716 0
0.0124206 0.0472934 0
0.0246576 0.0466012 0
0.0253441 0.0473141 0
0.0248563 0.0588366 0
0.0127347 0.0586964 0
0.0126821 0.0586459 0
0.0124206 0.0472934 0
0.550028 0 0
0.562387 0 0
0.562567 0.0115053 0
0.562501 0.0115728 0
0.550292 0.0118423 0
0.549952 0.011508 0
0.550028 0 0
0.0377964 0.501682 0
0.0496872 0.501938 0
0.0497114 0.501961 0
0.0504134 0.51409 0
0.0502111 0.514296 0
0.0375081 0.514428 0
0.0373659 0.514281 0
0.0377964 0.501682 0
0.0372845 0.0355488 0
0.0376379 0.0236904 0
0.0496657 0.0235687 0
0.0501357 0.0353651 0
0.0373215 0.0355861 0
0.0372845 0.0355488 0
0.525025 0.02363 0
0.537627 0.0229643 0
0.538183 0.0235247 0
0.537272 0.0351948 0
0.537178 0.0352848 0
0.525201 0.0346288 0
0.525025 0.02363 0
0.549864 0.489468 0
0.550039 0.489296 0
0.562055 0.489086 0
0.562414 0.50155 0
0.549849 0.501959 0
0.549678 0.501788 0
0.549864 0.489468 0
0.0503152 0.0355335 0
0.0624045 0.0347605 0
0.0629035 0.0352572 0
0.0626286 0.0471001 0
0.0503418 0.0469627 0
0.0503152 0.0355335 0
0.0502111 0.514296 0
0.0504134 0.51409 0
0.0626634 0.514246 0
0.0628169 0.514395 0
0.0624035 0.526179 0
0.0619903 0.526606 0
0.0503531 0.527137 0
0.0502732 0.527056 0
0.0502111 0.514296 0
0.549933 0.0235889 0
0.562359 0.0233798 0
0.562721 0.0352285 0
0.562403 0.0355292 0
0.550393 0.0352471 0
0.549933 0.0235889 0
0.0373215 0.0355861 0
0.0501357 0.0353651 0
0.0503152 0.0355335 0
0.0503418 0.0469627 0
0.0501661 0.0471345 0
0.0377102 0.0469046 0
0.0373215 0.0355861 0
0.537331 0.514472 0
0.537616 0.501894 0
0.549678 0.501788 0
0.549849 0.501959 0
0.550104 0.513889 0
0.5499 0.514102 0
0.537513 0.51465 0
0.537331 0.514472 0
0.0377066 0.526497 0
0.0375081 0.514428 0
0.0502111 0.514296 0
0.0502732 0.527056 0
0.0377066 0.526497 0
0.550292 0.0118423 0
0.562501 0.0115728 0
0.562544 0.0231835 0
0.562359 0.0233798 0
0.549933 0.0235889 0
0.549811 0.0234697 0
0.550292 0.0118423 0
0.0376331 0.0469843 0
0.0377102 0.0469046 0
0.0501661 0.0471345 0
0.0500648 0.0589401 0
0.0498804 0.059131 0
0.0377762 0.0588285 0
0.0376331 0.0469843 0
0 0.513987 0
0.0125756 0.514212 0
0.012263 0.526283 0
0 0.527177 0
0 0.513987 0
0.549849 0.501959 0
0.562414 0.50155 0
0.562468 0.501601 0
0.562904 0.51393 0
0.562549 0.514266 0
0.550104 0.513889 0
0.549849 0.501959 0
0.51266 0.0350041 0
0.524952 0.0348749 0
0.524793 0.0471376 0
0.524737 0.0471933 0
0.512668 0.0469145 0
0.51266 0.0350041 0
0.0251576 0.035287 0
0.0372845 0.0355488 0
0.0373215 0.0355861 0
0.0377102 0.0469046 0
0.0376331 0.0469843 0
0.0253441 0.0473141 0
0.0246576 0.0466012 0
0.0251576 0.035287 0
0 0.527177 0
0.012263 0.526283 0
0.0129205 0.526962 0
0.0123234 0.539348 0
0 0.538947 0
0 0.527177 0
0.550104 0.513889 0
0.562549 0.514266 0
0.562222 0.526465 0
0.550195 0.527104 0
0.5499 0.514102 0
0.550104 0.513889 0
0.0376017 0.0589962 0
0.0248779 0.0588581 0
0.0248563 0.0588366 0
0.0253441 0.0473141 0
0.0376331 0.0469843 0
0.0377762 0.0588285 0
0.0376017 0.0589962 0
0.0373659 0.514281 0
0.0375081 0.514428 0
0.0377066 0.526497 0
0.0374511 0.526756 0
0.0250682 0.526326 0
0.0248196 0.514493 0
0.0252946 0.514022 0
0.0373659 0.514281 0
0.51257 0.034917 0
0.51266 0.0350041 0
0.512668 0.0469145 0
0.512612 0.0469639 0
0.500396 0.046984 0
0.499898 0.0356377 0
0.500107 0.035408 0
0.51257 0.034917 0
0.012263 0.526283 0
0.0125756 0.514212 0
0.0126951 0.514091 0
0.0248196 0.514493 0
0.0250682 0.526326 0
0.0247308 0.526678 0
0.0129205 0.526962 0
0.012263 0.526283 0
0.0501661 0.0471345 0
0.0503418 0.0469627 0
0.0626286 0.0471001 0
0.0627009 0.0471724 0
0.0625966 0.0586949 0
0.0624781 0.0588157 0
0.0500648 0.0589401 0
0.0501661 0.0471345 0
0.500235 0.526773 0
0.500575 0.52644 0
0.512289 0.527013 0
0.512078 0.539164 0
0.511887 0.539371 0
0.500357 0.539697 0
0.499624 0.53899 0
0.500235 0.526773 0
0.524952 0.0348749 0
0.525201 0.0346288 0
0.537178 0.0352848 0
0.537298 0.046693 0
0.524793 0.0471376 0
0.524952 0.0348749 0
0.0247308 0.526678 0
0.0250682 0.526326 0
0.0374511 0.526756 0
0.0373475 0.538929 0
0.025175 0.539356 0
0.0247308 0.526678 0
0.0623531 0.0112302 0
0.0623608 0.0112222 0
0.0749511 0.0118584 0
0.0746224 0.0231176 0
[...]
CELL_DATA 6400
FIELD FieldData 3
weight 1 6400 float
 0.0451857 0.0451859 0.045207 0.0533778 0.0452461 0.0452105 0.0451927 0.0533946 0.0451903 0.0451965 0.0533668 0.0451887 0.0452094 0.0533907 0.0533729 0.0451989 0.0452108 0.0536574 0.0536592 0.0536504 0.0452196 0.0452524 0.0452454 0.0539202 0.0533758 0.0452503 0.0452155 0.0536458 0.0539192 0.0452128 0.0452535 0.0453033 0.0452117 0.0536544 0.0533885 0.0452502 0.0451915 0.0452996 0.053657 0.0533783 0.045209 0.045371 0.0451927 0.0536438 0.0533812 0.0453667 0.0451817 0.0536582 0.0452545 0.0452492 0.0533821 0.0453079 0.0539151 0.0452503 0.0453053 0.053659 0.05392 0.0452088 0.0453781 0.0539301 0.0536509 0.0453045 0.0453018 0.0541819 0.0539203 0.045377 0.053924 0.0453037 0.0539311 0.0453822 0.0541985 0.0453039 0.0541855 0.0452212 0.0542037 0.0544443 0.0452019 0.0453813 0.0452004 0.0541972 0.0542013 0.045383 0.0452161 0.0544495 0.0452533 0.0544711 0.0452548 0.0544563 0.0452198 0.0453039 0.0544686 0.0452584 0.0541814 0.0453061 0.0451987 0.0544545 0.0541978 0.0452136 0.0453742 0.0539276 0.0451996 0.0453745 0.0544576 0.0452127 0.054189 0.0544664 0.0453787 0.0451938 0.0539269 0.0451821 0.0452489 0.0533649 0.0452048 0.0541915 0.0452488 0.0451876 0.0533749 0.0453121 0.0544615 0.0452471 0.0536378 0.0453133 0.0452084 0.0544504 0.0536334 0.0453137 0.0452054 0.0452561 0.0536456 0.0533727 0.0453884 0.045182 0.0453841 0.0533663 0.0451925 0.0533651 0.0453907 0.0451862 0.053637 0.0453066 0.0452069 0.053374 0.0536348 0.0453094 0.0452055 0.0533847 0.0533705 0.0452479 0.0453837 0.0452985 0.0539135 0.0533802 0.0453884 0.0452466 0.0539072 0.0454663 0.0453035 0.0536397 0.0454646 0.0533863 0.0453793 0.0536425 0.0455717 0.0536465 0.0455813 0.0453792 0.0541859 0.053919 0.0456942 0.0453789 0.0541898 0.0456928 0.0536616 0.0453017 0.0539257 0.0452459 0.0454667 0.0536582 0.0539275 0.0452425 0.0454654 0.0539227 0.0453058 0.0544483 0.0455683 0.0539226 0.0453809 0.0544522 0.0454694 0.0541922 0.0453812 0.0456902 0.0541897 0.0544685 0.0455751 0.0453068 0.0541805 0.045569 0.0542037 0.0458306 0.0539231 0.0454717 0.0544753 0.0458175 0.0454615 0.0541902 0.0544576 0.0456926 0.0454654 0.0539374 0.0544598 0.0459681 0.0544674 0.0459692 0.0455685 0.0541965 0.0544589 0.0455643 0.0539254 0.0459717 0.0547214 0.0454631 0.045695 0.0547265 0.054195 0.0549774 0.0458265 0.0454668 0.0542079 0.0547294 0.0459621 0.045568 0.05447 0.0549786 0.0455755 0.0458241 0.0544649 0.0552328 0.0455743 0.0552352 0.0459639 0.05473 0.0456882 0.0549795 0.0458287 0.0547215 0.0547154 0.0458153 0.045471 0.0549725 0.0549932 0.0454705 0.0456834 0.054732 0.0454774 0.0549808 0.0549857 0.0455767 0.0549844 0.0458181 0.0455769 0.055242 0.0547283 0.0455762 0.0459598 0.0555069 0.0454731 0.0552529 0.0547215 0.0458218 0.0555014 0.0454737 0.0459638 0.054724 0.0557635 0.0455747 0.0456916 0.0549816 0.055769 0.0456972 0.0455809 0.0557661 0.0552404 0.0456945 0.045825 0.0554995 0.0549823 0.0456938 0.0458188 0.0554988 0.0456951 0.0552576 0.0552531 0.0458209 0.0459654 0.0552556 0.0555062 0.0459571 0.0458282 0.0557506 0.0555249 0.045965 0.0459627 0.0557518 0.0459595 0.0456974 0.0557757 0.0547217 0.0454676 0.0458275 0.0555234 0.0549825 0.0455625 0.0458242 0.0454652 0.0557739 0.0547312 0.0456978 0.0454685 0.0549926 0.0555227 0.0457012 0.0455697 0.0552408 0.0458311 0.0455692 0.0552602 0.0552373 0.0456808 0.0459641 0.0555233 0.0454694 0.0547212 0.0459743 0.0455657 0.0552594 0.054736 0.0459648 0.0454688 0.0555222 0.0547119 0.045209 0.0456812 0.0557846 0.0549741 0.0451864 0.0451843 0.0456917 0.0557853 0.0552467 0.0452081 0.0549851 0.0455792 0.0557703 0.0452506 0.0549963 0.0452511 0.0456916 0.0547207 0.0451891 0.0451896 0.0555036 0.0549834 0.0458167 0.04519 0.0555116 0.0452106 0.0547288 0.0456925 0.0452107 0.0549904 0.0459581 0.0452501 0.055764 0.0547317 0.0452123 0.0459684 0.0557672 0.0552554 0.045307 0.0458268 0.055759 0.0453076 0.054998 0.0458209 0.0452517 0.0552523 0.0547388 0.0458198 0.0453872 0.0555025 0.054725 0.0453108 0.0458152 0.0555033 0.0552512 0.0453843 0.0459589 0.0552547 0.0453803 0.0550035 0.0459548 0.0453063 0.0555036 0.0552505 0.0452495 0.0459559 0.0453048 0.0557581 0.0549952 0.0451883 0.0453776 0.0451879 0.0557593 0.0555155 0.045374 0.0452093 0.0451961 0.0552621 0.0452081 0.0533696 0.0451928 0.0451866 0.0555188 0.0451884 0.04521 0.0451856 0.0533688 0.0557734 0.045211 0.0452043 0.0536542 0.0452093 0.0452473 0.0557754 0.0536476 0.0452032 0.0452425 0.0536529 0.0557817 0.0453102 0.0451904 0.0533735 0.0451911 0.0452497 0.0555228 0.0451896 0.0453109 0.0533761 0.0552617 0.0452477 0.0452465 0.0452118 0.0452519 0.0555072 0.0533624 0.0452104 0.0453774 0.0539153 0.0555234 0.0452434 0.0453062 0.0539161 0.0452077 0.0557822 0.0453852 0.0536501 0.0452993 0.0453849 0.0557739 0.0536382 0.0452436 0.0452507 0.0539285 0.0452408 0.0533863 0.0453809 0.0453027 0.0541936 0.0453797 0.0453803 0.0533753 0.053928 0.045301 0.0453741 0.0536518 0.05419 0.045305 0.0453 0.0536408 0.0544452 0.0453026 0.0452074 0.0544605 0.0451869 0.0533719 0.0453046 0.0451893 0.054195 0.045201 0.0453826 0.0533855 0.0541941 0.0452058 0.0453787 0.0539279 0.045239 0.0533906 0.0453808 0.0452393 0.0536587 0.0541828 0.0451804 0.0454751 0.0451822 0.0544664 0.0451824 0.0455756 0.0536604 0.0452022 0.045477 0.0544527 0.0451988 0.0536513 0.0544639 0.045685 0.0452382 0.053929 0.045581 0.053368 0.0452989 0.0539365 0.0456883 0.0453025 0.0541897 0.0455738 0.0533744 0.0453038 0.0539263 0.0454701 0.0536529 0.0453706 0.0542031 0.0454632 0.0536564 0.0453688 0.0454653 0.0544593 0.0539129 0.0453697 0.0455724 0.0452419 0.0544643 0.0533918 0.0456859 0.0452989 0.0541987 0.0456879 0.0533897 0.0452427 0.0539333 0.0455753 0.053652 0.0453694 0.0456913 0.05419 0.0453704 0.053931 0.0533739 0.0459687 0.045298 0.0541999 0.0539202 0.0458235 0.0454702 0.0544648 0.053665 0.0458254 0.0544664 0.0454701 0.0539198 0.0458261 0.0544626 0.0454729 0.0536605 0.0459622 0.054191 0.0455781 0.0533844 0.0458232 0.0455774 0.0539259 0.0458194 0.0533837 0.0455783 0.0541795 0.0459605 0.0454693 0.0533834 0.0459626 0.054194 0.0454604 0.0536493 0.0459644 0.0536645 0.0456894 0.0544456 0.0455796 0.0454649 0.0536586 0.0544557 0.0456898 0.0454689 0.0544574 0.0539167 0.0455753 0.0455681 0.0456889 0.0536417 0.0539298 0.045567 0.0533743 0.0541919 0.0456818 0.0458188 0.0454655 0.0456944 0.0541947 0.0533784 0.0455672 0.0456914 0.0544509 0.0454696 0.0539242 0.0458232 0.0544588 0.053659 0.0454737 0.0459603 0.0547142 0.0541923 0.0456862 0.0459569 0.0539269 0.0547157 0.0455777 0.0458277 0.0539347 0.0549835 0.0458246 0.045583 0.0544767 0.0549843 0.0458142 0.0456922 0.0547142 0.0542034 0.0459632 0.0456895 0.0547246 0.0544686 0.0459565 0.0458084 0.0547193 0.054464 0.0459623 0.045825 0.0549937 0.0542036 0.0454619 0.0459597 0.0549858 0.045463 0.0541897 0.0459519 0.0552464 0.0455652 0.0539247 0.0458222 0.0455697 0.0552432 0.0544582 0.0458137 0.0549977 0.0455613 0.0541977 0.0456998 0.0456819 0.0552435 0.0544627 0.0454523 0.0458186 0.0555057 0.0547246 0.0454571 0.0459686 0.0552558 0.0549878 0.0454555 0.0459561 0.0555137 0.0547378 0.0455601 0.0459592 0.0557562 0.0550017 0.0455624 0.0461243 0.0557585 0.0458145 0.0552522 0.0461165 0.0552637 0.0456903 0.0464575 0.054999 0.0555022 0.0462839 0.0458072 0.0552557 0.0462932 0.0555104 0.0456839 0.0547378 0.0464539 0.0555096 0.0462873 0.0459602 0.0547212 0.055755 0.0461256 0.0459643 0.0547243 0.0557729 0.0461279 0.0456829 0.054997 0.055765 0.0461094 0.0458116 0.0552509 0.0547295 0.0462827 0.0549935 0.0456852 0.0547261 0.0464501 0.055265 0.0459512 0.0547185 0.0464539 0.04582 0.0555168 0.046286 0.0459547 0.0552467 0.0466404 0.0555183 0.0549972 0.0464651 0.0459609 0.0555067 0.0552549 0.0466318 0.0458225 0.055773 0.0468385 0.0550025 0.0466462 0.0557683 0.046119 0.0549911 0.0468429 0.055263 0.0468385 0.0549886 0.0461144 0.0555155 0.046629 0.0547209 0.0462686 0.0466358 0.0555007 0.0549887 0.0462768 0.0468252 0.0557685 0.0547278 0.0461087 0.0468334 0.0557792 0.0552484 0.0461198 0.0461087 0.0557757 0.0552504 0.0461152 0.0461199 0.0547341 0.0462847 0.0462827 0.0552546 0.0547331 0.0464581 0.0462869 0.0555189 0.0549894 0.0462937 0.0462832 0.0462831 0.0549987 0.0555074 0.0464518 0.0549844 0.0461247 0.0557748 0.0464593 0.0549841 0.0461232 0.055769 0.0466387 0.0547285 0.0555102 0.0461149 0.0464574 0.0547255 0.046453 0.0555191 0.046633 0.0547379 0.0462835 0.0464596 0.0555238 0.0464548 0.0552475 0.0557757 0.0462773 0.0468355 0.0549911 0.0557683 0.0464622 0.0552543 0.0468294 0.0557872 0.046636 0.0464632 0.0552556 0.056027 0.0466373 0.0466431 0.0555148 0.0560189 0.0468412 0.0466383 0.0555119 0.0560197 0.0468355 0.0562783 0.0466314 0.0557641 0.0468418 0.0562643 0.0555136 0.0468238 0.0565146 0.046641 0.056279 0.0468254 0.0557702 0.0466402 0.0560119 0.0468264 0.0557757 0.0464566 0.0560261 0.0552584 0.0461094 0.0466316 0.0562635 0.0461197 0.0565148 0.055254 0.04684 0.0562728 0.0461124 0.055768 0.0468295 0.0565154 0.0464537 0.0470297 0.0567716 0.0557648 0.0462822 0.0565301 0.0470332 0.0567588 0.0462867 0.0555191 0.0470409 0.0565257 0.0462798 0.0472337 0.0555185 0.0567631 0.0472301 0.0461159 0.0569981 0.056029 0.047234 0.0570002 0.0461166 0.0570162 0.0560328 0.0470272 0.0464505 0.0567543 0.0462898 0.0562823 0.0470228 0.0567646 0.0565262 0.0472399 0.046281 0.057013 0.056285 0.0570074 0.047443 0.04646 0.0472337 0.0560234 0.0560132 0.0466314 0.0474478 0.0562604 0.0560199 0.0466314 0.0474547 0.0560125 0.0476805 0.0560329 0.046822 0.0562623 0.0478935 0.0468192 0.0562851 0.0560166 0.0476784 0.0468211 0.0562915 0.0565121 0.0476788 0.0466347 0.0565179 0.0565225 0.0478952 0.0464585 0.0562807 0.0565194 0.0478961 0.0565057 0.0464549 0.0562759 0.0474599 0.0560204 0.0466287 0.0474506 0.0565375 0.0562607 0.0468195 0.0476765 0.0567772 0.0466384 0.056025 0.0478962 0.0567801 0.0565114 0.0468255 0.0565371 0.0476797 0.0562752 0.0470319 0.0570194 0.0567663 0.0479038 0.056781 0.0567739 0.0472298 0.0470301 0.0570067 0.0570099 0.0470369 0.0470372 0.0570229 0.0570053 0.0470433 0.0470195 0.0567637 0.0567597 0.0472422 0.0567611 0.047443 0.0472406 0.0567709 0.0567726 0.0472318 0.0565282 0.0474455 0.0570119 0.0470177 0.0570136 0.0472393 0.0570088 0.0470238 0.0570152 0.0470271 0.0560375 0.0570105 0.0472365 0.0470308 0.0574693 0.0562734 0.0472386 0.0572342 0.0562761 0.0472339 0.0474395 0.0472372 0.0474577 0.047456 0.0476726 0.0478949 0.0476775 0.0478993 0.0474391 0.0476833 0.0572513 0.0474476 0.0560352 0.0472317 0.0572366 0.0476702 0.0560445 0.0574858 0.0474396 0.0562747 0.0574822 0.0479065 0.0474402 0.0565252 0.0576946 0.0476774 0.0576916 0.0560294 0.0476567 0.047899 0.0572311 0.0562677 0.0476593 0.0562723 0.0479027 0.0572422 0.057467 0.0474477 0.0560267 0.0461201 0.0574787 0.0565173 0.0461178 0.0478851 0.0576949 0.0567654 0.0461115 0.0577079 0.047895 0.0565298 0.0462737 0.0579154 0.047663 0.056759 0.046285 0.0581415 0.0565287 0.0462858 0.0579286 0.0476645 0.0567636 0.0464456 0.0581483 0.057006 0.0476606 0.0461195 0.0579306 0.0570122 0.0462751 0.0478846 0.0577034 0.0570135 0.0461154 0.0478914 0.0565293 0.0579314 0.0464461 0.056776 0.0478914 0.0581458 0.0462815 0.0567744 0.0579338 0.046442 0.0470282 0.0570001 0.0581387 0.0464539 0.0470267 0.0570176 0.0466366 0.0581393 0.0472278 0.057254 0.0572517 0.0472342 0.0468244 0.0574693 0.0472353 0.046633 0.057253 0.0572504 0.0470214 0.0468168 0.057242 0.0574771 0.0470133 0.0464524 0.057693 0.0572437 0.0466241 0.0470288 0.0576994 0.0466388 0.0472282 0.0574789 0.0577077 0.0468233 0.0572486 0.0472232 0.0574887 0.0468189 0.0572395 0.0574859 0.0466346 0.0474412 0.0574776 0.0572521 0.0468148 0.0474418 0.0574797 0.0462708 0.0572549 0.047456 0.0574686 0.0461211 0.0476603 0.0574864 0.0579298 0.0474487 0.0461052 0.0574926 0.0579261 0.0464454 0.0577085 0.0478939 0.0579323 0.0462789 0.0581455 0.0476739 0.04612 0.057939 0.0579325 0.0478994 0.0581456 0.0461144 0.0476641 0.0577195 0.0581551 0.0476612 0.0579375 0.0461207 0.0579359 0.0476601 0.046272 0.0577106 0.058154 0.0474521 0.0462805 0.0577199 0.0581454 0.047897 0.0464442 0.0579276 0.0577236 0.0478982 0.0462755 0.0577184 0.0581456 0.0464522 0.0478968 0.0579282 0.0581596 0.0466317 0.0577177 0.0461229 0.0560136 0.046819 0.0461235 0.0581493 0.0562596 0.046634 0.0462818 0.0581505 0.0560087 0.0468202 0.0461157 0.0562711 0.0581421 0.0464561 0.0462818 0.0565213 0.0464531 0.0579389 0.0464508 0.0565154 0.0464555 0.0466332 0.057245 0.056025 0.0462822 0.0466388 0.0572571 0.0461185 0.0560244 0.0574816 0.0468274 0.0462783 0.0577076 0.0560101 0.0468285 0.0461145 0.0574889 0.0562815 0.0574794 0.0562616 0.0466415 0.0464497 0.0577093 0.0562822 0.0462835 0.0468354 0.057249 0.0567586 0.0466279 0.0470272 0.0572448 0.0567661 0.0466299 0.0470142 0.0574712 0.0570004 0.0466334 0.0572434 0.0474422 0.0570184 0.0464606 0.057698 0.0472282 0.0565233 0.0468312 0.0574869 0.0472296 0.0565239 0.0468283 0.0567712 0.057698 0.0474435 0.0466381 0.0565324 0.0472381 0.0579349 0.0464583 0.0567791 0.0577125 0.0470256 0.046637 0.0570248 0.0581443 0.0470173 0.0468304 0.0570099 0.0468314 0.0579436 0.0567788 0.0470204 0.0581525 0.0570159 0.0474326 0.046839 0.0579256 0.0472279 0.0461138 0.0560227 0.0579415 0.0472263 0.0461133 0.056033 0.0474533 0.0579329 0.0464526 0.0560375 0.0581534 0.0462844 0.0478853 0.0562869 0.0581529 0.0462826 0.0562799 0.0476714 0.0581469 0.0461051 0.0562913 0.0478827 0.0461178 0.0560328 0.0560337 0.0476776 0.0560283 0.0461177 0.0562731 0.0562835 0.0462794 0.0478856 0.0565169 0.0462791 0.0560287 0.0476618 0.0562867 0.0462806 0.0562846 0.0562774 0.0474483 0.0464654 0.0565252 0.0565142 0.0476647 0.0466447 0.0565275 0.0560301 0.047672 0.0464621 0.0567735 0.0560344 0.0565374 0.0478891 0.0466474 0.0562791 0.046637 0.0565347 0.0478894 0.0560362 0.0567767 0.0468364 0.0562713 0.0470214 0.0567831 0.0468405 0.0565183 0.0470297 0.0570264 0.0565202 0.0468277 0.047027 0.0565254 0.0570175 0.0466338 0.0474414 0.0570168 0.0567675 0.0464571 0.0472294 0.0567612 0.0464571 0.0567658 0.0472377 0.0570157 0.0466366 0.0565386 0.0570004 0.0470166 0.057026 0.0468248 0.0567696 0.0570175 0.0470262 0.0567717 0.0468363 0.0567846 0.0472259 0.0470346 0.0567596 0.0572414 0.0470317 0.0570174 0.0572455 0.0474419 0.0570118 0.047024 0.0577112 0.0472414 0.0570186 0.0472318 0.057487 0.0472302 0.0574801 0.0472465 0.0560355 0.0574857 0.0474486 0.0474548 0.0560226 0.0572424 0.047444 0.0562756 0.0476676 0.0472315 0.0572592 0.0562704 0.047445 0.0470305 0.0572595 0.0476778 0.0560289 0.0472313 0.057702 0.0470398 0.0478875 0.0574821 0.0560283 0.0474503 0.0574949 0.0476728 0.0560313 0.0472434 0.0562888 0.0479048 0.0579309 0.0565297 0.0476695 0.057723 0.0479074 0.0562945 0.0476613 0.057939 0.0474519 0.056526 0.0474528 0.0579348 0.0562891 0.0476658 0.0577161 0.047903 0.056761 0.0479058 0.0476729 0.0581473 0.0565297 0.0476743 0.0478975 0.0565316 0.0581458 0.0478918 0.0567707 0.0581536 0.0478901 0.0474474 0.0570087 0.0451947 0.0579362 0.0570031 0.047678 0.0451939 0.0579366 0.0565346 0.0452103 0.0478977 0.0577212 0.0567655 0.0452126 0.0478939 0.0581496 0.0452127 0.0567747 0.0476714 0.0581569 0.0451989 0.0570134 0.0451999 0.0572607 0.0470368 0.0451962 0.057005 0.0572539 0.0452153 0.0470398 0.0567841 0.0452146 0.0572653 0.0470387 0.057494 0.0570147 0.0452457 0.0472506 0.0574976 0.0452516 0.057249 0.0577128 0.0453085 0.0474528 0.0572488 0.0574878 0.0453083 0.0472492 0.0576988 0.0577106 0.0453882 0.047038 0.0577046 0.0572584 0.0453852 0.0574875 0.0472341 0.0572507 0.0453162 0.0574827 0.0452541 0.0470291 0.0574785 0.0577053 0.0452562 0.0472395 0.0572399 0.0452557 0.057482 0.0474439 0.0453166 0.0572505 0.0577045 0.045384 0.0572418 0.0472439 0.0453824 0.0574847 0.057485 0.0476658 0.0453892 0.0574909 0.0579388 0.0474589 0.0577102 0.0453148 0.0577252 0.0474657 0.0451952 0.0579277 0.0451968 0.0579325 0.0476794 0.0452559 0.0581542 0.0581553 0.0452174 0.047674 0.0452168 0.0579371 0.0581583 0.0452566 0.0478975 0.0451988 0.0581551 0.0579325 0.0452004 0.0478864 0.0581585 0.045198 0.0579359 0.0452188 0.0581396 0.047455 0.0452176 0.0579393 0.0579301 0.0452165 0.0476649 0.0577156 0.0453163 0.0579438 0.0478943 0.0577132 0.0453154 0.0581439 0.0453189 0.0478934 0.0579266 0.0581623 0.0453875 0.0581435 0.0476809 0.0453898 0.0581537 0.0453863 0.0533731 0.0478992 0.0574715 0.0452619 0.0451836 0.0453188 0.0533757 0.0572437 0.0452035 0.0452608 0.0574724 0.0451877 0.0533786 0.045259 0.0451879 0.0572535 0.0536415 0.0453192 0.0452043 0.0577036 0.0536591 0.0574901 0.0453897 0.0452411 0.0533738 0.0452036 0.0572395 0.0453945 0.045184 0.0536401 0.0572515 0.0451859 0.0454717 0.0452056 0.0572575 0.053367 0.0454779 0.0452498 0.0454749 0.0539124 0.0577107 0.0452089 0.0455711 0.053655 0.0574819 0.0452988 0.0455786 0.0539073 0.0452445 0.0577157 0.0455783 0.0574936 0.0453673 0.0536507 0.0579332 0.0456921 0.0453703 0.0539313 0.0577118 0.0453033 0.045687 0.0541965 0.0453044 0.0579274 0.0454715 0.0539296 0.0452472 0.0579367 0.0453041 0.0454745 0.0539317 0.0452498 0.0577205 0.0455778 0.0541929 0.0452986 0.0456932 0.058153 0.0453761 0.0455815 0.0544745 0.0581516 0.0458241 0.0453746 0.0544534 0.0581563 0.0453772 0.0542021 0.0458142 0.0579402 0.0451867 0.0456954 0.0541855 0.0451864 0.0579297 0.0451877 0.0458166 0.0541882 0.0452054 0.0581443 0.0544572 0.0459626 0.0452074 0.0544632 0.0581494 0.0452484 0.0459697 0.0452095 0.054445 0.0456953 0.0451828 0.0533856 0.0533728 0.045185 0.045826 0.0452062 0.0458268 0.0533845 0.0533652 0.0452425 0.045972 0.0536512 0.0452014 0.053366 0.0459656 0.0536653 0.0453011 0.0539032 0.045976 0.0452483 0.0539195 0.053646 0.0452488 0.0454752 0.0539196 0.0536523 0.0452984 0.045473 0.0536436 0.0536567 0.0453752 0.0454738 0.0453793 0.0533638 0.0456936 0.0533749 0.0453034 0.0536305 0.0455804 0.0533829 0.0452426 0.045576 0.0453755 0.0456904 0.0533719 0.0533638 0.0453739 0.0454735 0.0539026 0.0536379 0.0453689 0.0454793 0.0536295 0.0536553 0.0456958 0.0453041 0.0539154 0.0541816 0.0455786 0.0453054 0.0541733 0.0541985 0.0456956 0.0454529 0.0541828 0.0455832 0.0539296 0.0544562 0.0454588 0.0541924 0.0455758 0.0541929 0.0454631 0.0544691 0.045828 0.0544546 0.0544718 0.045562 0.0458233 0.0455612 0.0458192 0.0541811 0.0541815 0.0455668 0.0539149 0.0459637 0.0539264 0.0456763 0.0539185 0.0459627 0.0539251 0.04546 0.0541768 0.0459681 0.05446 0.045467 0.0544429 0.0544601 0.0455578 0.0458233 0.0544443 0.045564 0.054198 0.0456972 0.0544545 0.0456815 0.0544547 0.0458294 0.0547147 0.045806 0.0533752 0.0459654 0.0547199 0.0456809 0.0533768 0.0459792 0.0547309 0.0459542 0.0451976 0.0549944 0.0533646 0.0452042 0.0458104 0.0452049 0.0536478 0.0549956 0.045953 0.0452198 0.0536513 0.0549815 0.0459537 0.0452239 0.0536353 0.0452203 0.0456815 0.0547217 0.0539046 0.0452049 0.0458141 0.0547157 0.0452082 0.053372 0.054997 0.0452227 0.0458116 0.053375 0.0549847 0.0452232 0.0456828 0.0536509 0.0552502 0.0452637 0.0458171 0.045322 0.0536447 0.0552623 0.045963 0.0452673 0.053924 0.0453179 0.0459599 0.0555156 0.0541891 0.0452627 0.0454663 0.0552626 0.0541871 0.0453974 0.0454626 0.055258 0.0544465 0.0454693 0.0453237 0.0555177 0.0541934 0.0455712 0.0453903 0.0555084 0.0455662 0.0544575 0.045263 0.0455715 0.0539168 0.0452678 0.0557789 0.0454586 0.0539167 0.0453171 0.0557662 0.0453867 0.0454598 0.0541851 0.0557717 0.0456878 0.0453895 0.0541818 0.0555044 0.0453186 0.0455693 0.0539228 0.0552489 0.0455625 0.045389 0.0544552 0.0452044 0.0456841 0.0555 0.0451996 0.0544473 0.045818 0.0452611 0.0557581 0.0544516 0.0458201 0.0452245 0.0557648 0.0456884 0.0547289 0.0452199 0.054976 0.0459607 0.0452192 0.0547303 0.0547318 0.0451968 0.0459682 0.0547218 0.0452151 0.0456931 0.0547208 0.0547116 0.0458213 0.0451963 0.0549979 0.0451973 0.0458235 0.05524 0.0552484 0.0549982 0.0456889 0.0452579 0.054983 0.0452204 0.0550065 0.0458162 0.0552398 0.0452545 0.0459613 0.055001 0.0547157 0.0453178 0.0547342 0.0459629 0.0452594 0.0549773 0.0547352 0.0459643 0.0453093 0.0547136 0.0452095 0.0453161 0.0549782 0.0451836 0.0552476 0.0451878 0.0552505 0.0453938 0.0451855 0.0549814 0.0452059 0.0550023 0.045386 0.0554974 0.0452053 0.0453922 0.0554995 0.0555117 0.0452415 0.0453065 0.0452436 0.0555126 0.0555147 0.0452457 0.045253 0.0451818 0.0557593 0.0552638 0.0453077 0.04519