# vtk DataFile Version 3.0
vtk output
ASCII
DATASET UNSTRUCTURED_GRID
POINTS 24703 float
0.189937 0 0
1 0 0
1 0.724842 0
0.189937 0 0
0 0 0
0.0350221 0 0
0.247208 0.286792 0
0.324979 0.397477 0
0.733031 1 0
0 1 0
0 0 0
0 0 0
1 0 0
1 0.247757 0
0.894725 0.299303 0
0.421145 0.511861 0
0 0.698405 0
0 0 0
0 0.07174 0
0.184846 0.40529 0
0.277556 0.579558 0
0.489166 1 0
0 1 0
0 0.07174 0
0 0 0
1 0 0
1 0.859337 0
0.666236 0.62713 0
0.50979 0.515543 0
0 0.138929 0
0 0 0
0 0 0
0.0570835 0 0
0.548196 1 0
0 1 0
0 0 0
0 0 0
1 0 0
1 0.332658 0
0.513171 0.558991 0
0 0.783481 0
0 0 0
0 0 0
0.0189149 0 0
0.677409 1 0
0 1 0
0 0 0
0 0 0
1 0 0
1 0.254932 0
0.89547 0.303031 0
0.381137 0.518887 0
0 0.676845 0
0 0 0
0.422961 0 0
1 0 0
1 0.410754 0
0.662032 0.180645 0
0.599026 0.135186 0
0.422961 0 0
0.654401 0 0
1 0 0
1 0.147844 0
0.654401 0 0
0 0.905158 0
0.0816991 1 0
0 1 0
0 0.905158 0
0.90548 0.321586 0
0.328396 0 0
1 0 0
1 0.371062 0
0.90548 0.321586 0
0.339446 0 0
1 0 0
1 0.448934 0
0.90213 0.385148 0
0.339446 0 0
0 0.692103 0
0.249171 1 0
0 1 0
0 0.692103 0
0.419451 0 0
1 0 0
1 0.344857 0
0.555661 0.0840251 0
0.419451 0 0
0 0.969305 0
0.0235076 1 0
0 1 0
0 0.969305 0
0.360605 0 0
1 0 0
1 0.326618 0
0.980722 0.317573 0
0.604669 0.129486 0
0.360605 0 0
0 0.597734 0
0.229739 1 0
0 1 0
0 0.597734 0
0.751208 0 0
1 0 0
1 0.188253 0
0.785343 0.0272731 0
0.751208 0 0
0 0.627007 0
0.0559945 0.734202 0
0.187245 1 0
0 1 0
0 0.627007 0
0 0.483332 0
0.121926 0.638655 0
0.278633 0.849895 0
0.383477 1 0
0 1 0
0 0.483332 0
0.825887 0 0
1 0 0
1 0.0812343 0
0.926853 0.0485502 0
0.825887 0 0
0.602704 0 0
1 0 0
1 0.196408 0
0.602704 0 0
0.574882 0 0
1 0 0
1 0.224084 0
0.574882 0 0
0.251532 0 0
1 0 0
1 0.505857 0
0.722863 0.326743 0
0.394765 0.101674 0
0.251532 0 0
0 0.956061 0
0.0323703 1 0
0 1 0
0 0.956061 0
0.21435 0 0
1 0 0
1 0.690662 0
0.617328 0.368143 0
0.21435 0 0
0.477722 0.20526 0
0.217981 0 0
1 0 0
1 0.605158 0
0.477722 0.20526 0
0 0 0
1 0 0
1 0.349708 0
0 0.817491 0
0 0 0
0 0.948414 0
0.0422729 1 0
0 1 0
0 0.948414 0
0.0479473 0 0
1 0 0
1 0.260638 0
0.50069 0.493357 0
0.0735801 0.0288694 0
0.0479473 0 0
0 0.696258 0
0.247022 1 0
0 1 0
0 0.696258 0
0 0 0
1 0 0
1 0.334561 0
0.503204 0.543232 0
0.358634 0.600102 0
0.0449209 0.212972 0
0 0.153685 0
0 0 0
0 0.865804 0
0.0988267 0.978433 0
0.116869 1 0
0 1 0
0 0.865804 0
0 0 0
1 0 0
1 0.563599 0
0.409972 0.298017 0
0 0.0860833 0
0 0 0
0 0.902674 0
0.0604373 1 0
0 1 0
0 0.902674 0
0.892749 0.330771 0
0.365283 0 0
1 0 0
1 0.394117 0
0.892749 0.330771 0
0 0.886555 0
0.0654488 1 0
0 1 0
0 0.886555 0
0.45481 0.207236 0
0.217296 0 0
1 0 0
1 0.668136 0
0.45481 0.207236 0
0.331009 0 0
1 0 0
1 0.389168 0
0.931334 0.352118 0
0.604128 0.164752 0
0.331009 0 0
0 0.477106 0
0.060292 0.540855 0
0.473155 1 0
0 1 0
0 0.477106 0
0.151339 0 0
1 0 0
1 0.888673 0
0.151339 0 0
0 0 0
1 0 0
1 0.583446 0
0.408914 0.299719 0
0 0.07551 0
0 0 0
0 0.167991 0
0.529259 0.578266 0
0.410464 0.861591 0
0.348721 1 0
0 1 0
0 0.167991 0
0.20484 0 0
1 0 0
1 0.855523 0
0.920627 0.776403 0
0.20484 0 0
0 0.414938 0
0.282555 0.692832 0
0.581936 1 0
0 1 0
0 0.414938 0
0 0.277529 0
0.685699 0.827395 0
0.886776 1 0
0 1 0
0 0.277529 0
0 0 0
1 0 0
1 0.808697 0
0.948953 0.785986 0
0 0.339385 0
0 0 0
0 0.381266 0
0.573036 1 0
0 1 0
0 0.381266 0
0 0 0
1 0 0
1 0.882812 0
0.340277 0.474186 0
0 0.247318 0
0 0 0
0 0.37881 0
0.28255 0.653985 0
0.623424 1 0
0 1 0
0 0.37881 0
0 0.107504 0
0.174144 0.402928 0
0.27541 0.58145 0
0.500445 1 0
0 1 0
0 0.107504 0
0 0 0
1 0 0
1 0.441627 0
0.326533 0.767833 0
0 0.920273 0
0 0 0
0 0 0
0.00889409 0 0
0.449641 0.868022 0
0.373373 1 0
0 1 0
0 0 0
0 0 0
1 0 0
1 0.935339 0
0 0.410614 0
0 0 0
0 0 0
0.0837853 0 0
0.268054 0.353214 0
0.59216 1 0
0 1 0
0 0 0
0 0 0
1 0 0
1 0.851902 0
0.319263 0.437146 0
0 0.231298 0
0 0 0
0 0.178975 0
0.0498246 0.262611 0
0.452316 1 0
0 1 0
0 0.178975 0
0 0 0
1 0 0
1 0.879761 0
0.319318 0.4393 0
0 0.221229 0
0 0 0
0 0.0290528 0
0.333838 0.599151 0
0.556887 1 0
0 1 0
0 0.0290528 0
0 0 0
1 0 0
1 0.680602 0
0.27306 0.352343 0
0 0.218602 0
0 0 0
0 0.311958 0
0.245138 0.645779 0
0.483699 1 0
0 1 0
0 0.311958 0
0 0 0
1 0 0
1 0.984245 0
0 0.452729 0
0 0 0
0 0.0628508 0
0.329999 0.603031 0
0.560464 1 0
0 1 0
0 0.0628508 0
0 0 0
1 0 0
1 0.900462 0
0.608143 0.668432 0
0 0.276065 0
0 0 0
0 0 0
1 0 0
1 0.944558 0
0 0.2941 0
0 0 0
0 0.859048 0
0.0733811 1 0
0 1 0
0 0.859048 0
0 0 0
1 0 0
1 0.939231 0
0.598868 0.680159 0
0 0.260103 0
0 0 0
0 0.520457 0
0.111911 0.649269 0
0.277687 0.851053 0
0.392969 1 0
0 1 0
0 0.520457 0
0 0.685645 0
0.0444113 0.757751 0
0.185477 1 0
0 1 0
0 0.685645 0
0 0 0
1 0 0
1 1 0
0.82971 1 0
0 0.529992 0
0 0 0
0 0 0
1 0 0
1 1 0
0.810524 1 0
0 0.528585 0
0 0 0
0 0 0
1 0 0
1 1 0
0 1 0
0 0 0
0 0.273012 0
0.652413 0.756365 0
0.540006 1 0
0 1 0
0 0.273012 0
0 0 0
1 0 0
1 1 0
0 1 0
0 0 0
0 0 0
1 0 0
1 1 0
0 1 0
0 0 0
0 0.74206 0
0.141158 1 0
0 1 0
0 0.74206 0
0 0 0
1 0 0
1 1 0
0 1 0
0 0 0
0 0.59431 0
0.293284 1 0
0 1 0
0 0.59431 0
0 0 0
1 0 0
1 1 0
0.828025 1 0
0.241536 0.673612 0
0 0.535059 0
0 0 0
0 0.560351 0
0.356649 1 0
0 1 0
0 0.560351 0
0 0 0
1 0 0
1 1 0
0.996344 1 0
0 0.449733 0
0 0 0
0 0.312933 0
0.88499 1 0
0 1 0
0 0.312933 0
0 0 0
1 0 0
1 1 0
0.807025 1 0
0.240776 0.674599 0
0 0.532055 0
0 0 0
0 0 0
1 0 0
1 1 0
0.966941 1 0
0 0.442036 0
0 0 0
0 0 0
1 0 0
1 1 0
0 1 0
0 0 0
0 0 0
1 0 0
1 1 0
0 1 0
0 0 0
0 0.213585 0
0.529211 1 0
0 1 0
0 0.213585 0
0 0 0
1 0 0
1 1 0
0.655334 1 0
0 0.567234 0
0 0 0
0 0.0144352 0
0.0477043 0.10686 0
0.219828 0.453611 0
0.477486 1 0
0 1 0
0 0.0144352 0
0 0.442155 0
0.606517 1 0
0 1 0
0 0.442155 0
0 0 0
1 0 0
1 0.943222 0
0 0.109556 0
0 0 0
0 0.116528 0
0.205821 0.409918 0
0.304759 0.555559 0
0.592265 1 0
0 1 0
0 0.116528 0
0 0 0
1 0 0
1 0.70748 0
0.744324 0.576121 0
0 0.175057 0
0 0 0
0 0 0
1 0 0
1 0.727905 0
0.734119 0.583556 0
0 0.166023 0
0 0 0
0 0 0
0.368119 0 0
0.872967 1 0
0 1 0
0 0 0
0 0 0
1 0 0
1 0.904142 0
0.319422 0.443391 0
0 0.215573 0
0 0 0
0 0 0
0.395342 0 0
0.577705 0.313976 0
0.964422 1 0
0 1 0
0 0 0
0 0 0
1 0 0
1 1 0
0 1 0
0 0 0
0 0 0
1 0 0
1 1 0
0 1 0
0 0 0
0 0 0
1 0 0
1 0.929211 0
0.319585 0.449818 0
0 0.213033 0
0 0 0
0 0 0
1 0 0
1 0.752247 0
0.317972 0.423817 0
0 0.257217 0
0 0 0
0 0 0
0.0865915 0 0
0.260192 0.300586 0
0.634089 1 0
0 1 0
0 0 0
0 0 0
1 0 0
1 0.643827 0
0.139857 0.253608 0
0 0.186585 0
0 0 0
0 0 0
0.398991 0 0
0.547093 0.230682 0
1 0.95659 0
1 1 0
0 1 0
0 0 0
0 0 0
1 0 0
1 0.609113 0
0.405004 0.306011 0
0 0.0714154 0
0 0 0
0 0 0
1 0 0
1 0.77264 0
0.317632 0.425843 0
0 0.250762 0
0 0 0
0 0 0
0.551229 0 0
0.660435 0.166601 0
0.723288 0.264835 0
1 0.703261 0
1 1 0
0 1 0
0 0 0
0 0 0
1 0 0
1 1 0
0 1 0
0 0 0
0 0 0
1 0 0
1 0.762748 0
0.27154 0.35532 0
0 0.192331 0
0 0 0
0 0 0
1 0 0
1 1 0
0 1 0
0 0 0
0 0 0
1 0 0
1 1 0
0 1 0
0 0 0
0 0 0
1 0 0
1 1 0
0 1 0
0 0 0
0 0 0
1 0 0
1 1 0
0 1 0
0 0 0
0 0 0
1 0 0
1 0.739003 0
0.775776 0.593943 0
0.532185 0.427036 0
0 0.0558071 0
0 0 0
0 0 0
1 0 0
1 1 0
0 1 0
0 0 0
0 0 0
1 0 0
1 1 0
0 1 0
0 0 0
0 0 0
1 0 0
1 0.988601 0
0 0.279457 0
0 0 0
0 0 0
0.401576 0 0
0.55349 0.232226 0
1 0.933997 0
1 1 0
0 1 0
0 0 0
0 0 0
1 0 0
1 0.950528 0
0.767442 0.807148 0
0 0.299712 0
0 0 0
0 0 0
0.132961 0 0
0.813588 1 0
0 1 0
0 0 0
0 0 0
1 0 0
1 1 0
0.909868 1 0
0 0.439318 0
0 0 0
0 0 0
0.389759 0 0
0.543126 0.229725 0
1 0.933291 0
1 1 0
0 1 0
0 0 0
0 0 0
1 0 0
1 1 0
0.66299 1 0
0 0.497698 0
0 0 0
0 0 0
0.175431 0 0
0.506769 0.398487 0
0.767629 0.724619 0
0.982603 1 0
0 1 0
0 0 0
0 0 0
1 0 0
1 1 0
0.768187 1 0
0 0.412605 0
0 0 0
0 0 0
0.119093 0 0
0.482125 0.468035 0
0.880132 1 0
0 1 0
0 0 0
0 0 0
1 0 0
1 1 0
0 1 0
0 0 0
0 0 0
1 0 0
1 1 0
0 1 0
0 0 0
0 0 0
1 0 0
1 1 0
0.890406 1 0
0 0.431506 0
0 0 0
0 0 0
1 0 0
1 1 0
0 1 0
0 0 0
0 0 0
1 0 0
1 1 0
0 1 0
0 0 0
0 0 0
1 0 0
1 1 0
0 1 0
0 0 0
0 0 0
1 0 0
1 1 0
0 1 0
0 0 0
0 0 0
0.29685 0 0
0.736934 0.691602 0
0.926166 1 0
0 1 0
0 0 0
0 0 0
1 0 0
1 1 0
0 1 0
0 0 0
0 0 0
1 0 0
1 0.956303 0
0.320092 0.452546 0
0.319451 0.452064 0
0 0.203633 0
0 0 0
0 0 0
1 0 0
1 1 0
0 1 0
0 0 0
0 0 0
0.325212 0 0
1 0.952233 0
1 1 0
0 1 0
0 0 0
0 0 0
1 0 0
1 1 0
0 1 0
0 0 0
0 0 0
1 0 0
1 1 0
0 1 0
0 0 0
0 0 0
1 0 0
1 1 0
0 1 0
0 0 0
0 0 0
1 0 0
1 0.822842 0
0 0.27119 0
0 0 0
0 0 0
1 0 0
1 1 0
0 1 0
0 0 0
0 0 0
1 0 0
1 1 0
0 1 0
0 0 0
0 0 0
1 0 0
1 1 0
0 1 0
0 0 0
0 0 0
1 0 0
1 1 0
0 1 0
0 0 0
0 0 0
1 0 0
1 1 0
0 1 0
0 0 0
0 0 0
1 0 0
1 1 0
0 1 0
0 0 0
0 0 0
1 0 0
1 1 0
0 1 0
0 0 0
0 0 0
1 0 0
1 1 0
0 1 0
0 0 0
0 0 0
1 0 0
1 1 0
0 1 0
0 0 0
0 0 0
1 0 0
1 0.950063 0
0.869834 0.868521 0
0 0.29694 0
0 0 0
0 0 0
1 0 0
1 1 0
0 1 0
0 0 0
0 0 0
1 0 0
1 1 0
0 1 0
0 0 0
0 0 0
1 0 0
1 1 0
0 1 0
0 0 0
0 0 0
1 0 0
1 1 0
0 1 0
0 0 0
0 0 0
1 0 0
1 1 0
0 1 0
0 0 0
0 0 0
1 0 0
1 1 0
0 1 0
0 0 0
0 0 0
1 0 0
1 1 0
0 1 0
0 0 0
0 0 0
1 0 0
1 1 0
0 1 0
0 0 0
0 0 0
1 0 0
1 1 0
0 1 0
0 0 0
0 0 0
1 0 0
1 1 0
0 1 0
0 0 0
0 0 0
1 0 0
1 1 0
0 1 0
0 0 0
0 0 0
1 0 0
1 1 0
0.896617 1 0
0.192931 0.442091 0
0 0.286588 0
0 0 0
0 0 0
1 0 0
1 1 0
0 1 0
0 0 0
0 0 0
1 0 0
1 1 0
0 1 0
0 0 0
0 0 0
1 0 0
1 1 0
0 1 0
0 0 0
0 0 0
1 0 0
1 1 0
0 1 0
0 0 0
0 0 0
1 0 0
1 1 0
0 1 0
0 0 0
0 0 0
1 0 0
1 1 0
0 1 0
0 0 0
0 0 0
1 0 0
1 1 0
0 1 0
0 0 0
0 0 0
1 0 0
1 0.965022 0
0.763289 0.812969 0
0 0.287587 0
0 0 0
0 0 0
1 0 0
1 1 0
0 1 0
0 0 0
0 0 0
1 0 0
1 1 0
0 1 0
0 0 0
0 0 0
1 0 0
1 1 0
0 1 0
0 0 0
0 0 0
1 0 0
1 1 0
0 1 0
0 0 0
0 0 0
1 0 0
1 1 0
0 1 0
0 0 0
0 0 0
1 0 0
1 1 0
0 1 0
0 0 0
0 0 0
1 0 0
1 1 0
0 1 0
0 0 0
0 0 0
1 0 0
1 1 0
0.943939 1 0
0.573649 0.712043 0
0 0.2304 0
0 0 0
0 0 0
1 0 0
1 1 0
0 1 0
0 0 0
0 0 0
1 0 0
1 1 0
0 1 0
0 0 0
0 0 0
1 0 0
1 1 0
0 1 0
0 0 0
0 0 0
1 0 0
1 1 0
0 1 0
0 0 0
0 0 0
1 0 0
1 1 0
0 1 0
0 0 0
0 0 0
1 0 0
1 1 0
0 1 0
0 0 0
0 0 0
1 0 0
1 1 0
0 1 0
0 0 0
0 0 0
1 0 0
1 1 0
0 1 0
0 0 0
0 0 0
1 0 0
1 1 0
0 1 0
0 0 0
0 0 0
1 0 0
1 1 0
0 1 0
0 0 0
0 0 0
1 0 0
1 1 0
0 1 0
0 0 0
0 0 0
1 0 0
1 1 0
0 1 0
0 0 0
0 0 0
1 0 0
1 1 0
0 1 0
0 0 0
0 0 0
1 0 0
1 1 0
0 1 0
0 0 0
0 0 0
1 0 0
1 1 0
0 1 0
0 0 0
0 0 0
1 0 0
1 1 0
0 1 0
0 0 0
0 0 0
1 0 0
1 1 0
0 1 0
0 0 0
0 0 0
1 0 0
1 1 0
0 1 0
0 0 0
[...]
CELL_DATA 4925
FIELD FieldData 3
weight 1 4925 float
 1.00937 1.00293 1.02788 0.97796 1.05931 0.984285 1.04688 1.00925 1.02192 0.953003 0.909127 0.803141 0.971951 0.96584 0.865602 0.972063 0.809503 0.959325 0.909471 0.878357 0.896708 0.927892 0.915702 0.927912 0.940425 0.977884 0.821724 1.00937 1.00337 1.04059 0.809318 1.01556 0.877969 1.02824 0.840382 1.0407 0.834619 0.965495 0.846821 1.02825 0.99047 0.915751 1.0404 1.04683 0.978158 1.04703 0.915562 0.934457 1.06572 0.965474 1.06545 0.946841 0.971993 1.08449 0.940687 1.09663 0.996835 1.06557 0.971849 1.07169 0.997027 1.05325 0.959553 1.10318 0.984596 1.0719 1.09047 0.85292 1.07797 0.909537 0.872025 1.10934 1.11575 1.1158 0.959215 1.11571 1.12202 0.871899 1.12167 0.915671 1.11543 0.909341 1.10956 0.965565 1.1221 1.10932 1.12173 1.13452 0.990844 1.12798 0.977962 0.934604 1.07181 1.01574 1.05954 1.06539 1.01577 1.07796 1.02196 1.04712 1.04065 1.0905 1.07815 0.972074 1.07185 1.03429 1.05956 1.08418 1.02831 1.05957 1.08447 1.02798 1.07821 1.04696 1.03444 1.05939 1.05917 1.04668 1.09684 1.05309 1.10336 1.0094 1.12824 1.02811 1.12795 1.02827 1.11571 0.997065 1.04076 1.04055 1.12196 1.1407 1.10293 1.13423 1.10918 1.0033 1.12166 1.0968 1.11573 1.02192 1.11551 1.04685 1.13444 1.09696 1.12198 1.10944 1.05918 1.12185 1.0843 1.05302 1.10334 1.07835 1.12164 1.10302 1.09039 1.06565 1.07835 1.05296 1.05306 1.10916 1.07197 1.09693 1.09065 1.09689 1.11587 1.10933 1.0783 1.07195 1.0782 1.07185 1.06544 1.07797 1.08422 1.09695 1.05332 1.10939 1.00948 1.04689 1.01568 1.05931 1.05915 1.10943 1.0845 1.02795 1.09705 1.03461 1.0656 1.04704 1.07823 1.05914 1.09685 1.04698 1.03436 1.05956 1.04049 1.02828 1.04081 1.04055 1.05942 1.05324 1.05335 0.884339 1.05317 1.02206 1.04676 1.08447 1.03458 1.07801 1.01572 0.909566 1.00922 1.02168 1.06562 1.08452 1.05933 1.07168 1.07209 1.01577 1.06561 1.06555 1.07176 1.08457 0.946915 1.00293 1.05958 1.07192 1.04709 1.05944 0.997065 1.05914 0.953365 1.07197 1.04676 1.05324 0.98416 1.07798 0.965748 1.05328 1.02791 1.0533 1.05301 1.00952 1.03449 1.04706 1.04044 1.00937 1.10933 1.02837 1.09062 1.11538 1.10295 1.10301 1.11572 1.10915 1.00317 1.1219 1.07822 0.934149 1.10333 0.953255 1.09682 1.0032 1.09038 1.03441 1.06586 1.07188 1.05942 1.01549 1.09681 0.940478 1.09062 1.08443 0.978247 1.0842 1.09067 1.07194 0.978001 1.07797 1.08428 1.05321 1.0967 1.09066 1.09676 1.0907 0.965813 1.08439 0.997086 1.07197 1.08424 1.09668 0.99083 1.03456 1.09074 0.990516 1.08439 1.09039 0.972058 1.07807 1.09086 0.971786 1.07825 1.0783 1.01569 0.984405 1.07806 0.996856 0.978243 1.06553 1.05953 1.06581 0.978139 1.0593 1.0596 1.07199 1.00962 1.05333 1.02198 1.05934 1.04664 1.07828 1.00927 1.07179 1.00962 1.06567 1.05916 1.02173 1.06556 1.05334 1.00337 1.06561 1.08421 0.971947 1.04039 1.0529 1.0468 0.977943 1.05321 1.04046 1.05915 0.99057 1.04688 1.03424 0.928295 1.02798 1.0346 1.00303 1.04063 1.03416 0.946691 1.0343 1.04687 1.02169 1.02834 0.92201 0.996707 1.02834 1.06585 1.05947 1.04684 0.947077 1.07208 1.02171 1.02173 1.02807 1.05305 1.0408 1.05308 1.05917 1.0468 1.02192 1.04665 1.0406 1.04055 1.04077 1.01551 1.03449 1.04071 1.02818 1.02826 1.02209 1.01553 1.03448 1.02171 1.03438 0.940854 1.0033 0.984352 1.02809 0.959551 1.02799 1.0154 1.03439 1.07163 1.00934 0.971849 0.996693 1.02802 0.978055 1.07209 0.984323 1.00926 1.02794 1.06567 0.959413 1.00299 0.996785 1.02837 1.01546 1.03446 0.965494 1.10317 0.996858 0.996746 1.0343 0.990454 1.00316 1.00333 0.978102 0.965717 0.99047 1.02212 0.971752 1.02205 0.996958 0.953163 1.01572 1.00959 0.977937 1.00295 1.00935 0.940831 1.01585 1.01552 1.03431 0.990496 1.05335 1.02207 1.02827 1.0467 1.01568 0.965581 1.01538 1.05334 1.0406 1.04079 1.04046 1.0092 1.02821 0.984354 1.04692 1.04041 1.0093 0.99681 0.990727 1.06568 0.996771 1.02791 1.00334 1.03413 1.00926 1.02185 1.03415 1.09054 0.997042 1.00326 0.977934 0.815594 0.971942 1.02196 1.04679 1.07835 0.953173 0.946706 0.97815 0.990634 1.07163 0.96539 1.00297 0.959319 0.971646 0.984515 0.847094 0.934558 1.08446 1.01583 0.965638 0.953038 0.946894 0.990862 0.997034 1.04073 0.95939 0.865526 0.978085 0.965441 1.02803 0.946882 0.878316 0.959447 0.984197 0.996922 1.02797 1.00942 0.984447 1.02183 1.07808 1.00955 0.828257 0.996923 1.05337 0.990642 1.00298 0.90309 1.04067 0.990526 1.10313 1.09044 0.996968 0.978111 0.984468 1.10326 0.978209 0.965504 0.971871 0.990577 0.972088 0.828109 1.11543 0.959197 0.984528 0.990501 1.11552 0.884433 0.953346 0.978057 0.859271 1.05949 0.96578 1.01566 0.840836 1.04693 1.09068 1.02193 1.01559 1.02793 1.0157 0.853272 1.02802 1.03448 1.08435 1.01558 1.03427 1.00922 0.83418 1.02207 1.01577 1.08442 1.02172 1.00333 0.94674 1.00918 1.09674 0.996728 1.02203 1.00915 1.10918 1.0096 0.903293 1.00335 1.02212 0.99665 0.990541 1.0969 0.915861 0.977935 1.00324 0.996981 1.10337 0.990784 0.921956 1.00954 0.996996 1.00923 1.01557 1.02211 0.909596 0.984168 1.04059 0.921901 1.00326 0.996906 0.946803 0.984247 1.02196 0.97833 1.04708 0.984262 1.02799 0.953043 0.997091 1.00337 0.965741 1.02171 0.922013 1.02179 0.971772 1.00914 0.997121 0.96577 0.997049 0.940601 0.984322 1.01565 0.890685 0.990751 1.01538 0.953108 0.990536 1.09058 1.02176 0.890525 1.05326 0.934282 0.878267 1.07796 0.977911 0.952909 1.00295 0.903319 1.08439 0.934129 0.971974 0.978175 1.00297 1.08415 0.971765 0.990768 0.890758 0.97833 1.07164 0.953258 0.959427 0.978089 1.03449 0.971898 0.909133 0.984457 1.06581 0.984245 0.98461 1.0095 0.984135 1.02824 0.965426 1.05932 0.965571 1.04682 0.990509 1.04074 1.14675 0.965592 1.14691 0.840711 1.14051 0.978021 1.15293 1.14681 1.15301 1.15295 1.13428 1.1471 0.94682 1.14053 1.15318 1.14042 1.14702 0.953091 1.15957 1.15927 0.959549 1.16577 1.1595 1.15916 1.15317 0.959268 1.15962 1.15913 1.16587 1.13415 1.13459 0.928279 0.965756 1.13434 1.14072 1.14049 0.972024 0.834342 1.12835 0.828164 0.965598 1.13413 0.903157 0.971835 1.11562 0.871826 0.959204 1.13424 1.14057 0.859354 1.14071 1.14711 0.965675 1.15297 0.865544 1.14667 1.14697 0.978126 0.896829 1.15944 1.15334 0.978215 1.15324 0.897107 1.14073 0.928116 0.915487 1.12806 0.946702 0.847023 1.15313 0.915689 1.14682 0.865653 1.13415 0.940755 1.17179 0.859325 1.17202 1.17807 0.953052 1.1721 1.17805 0.940485 0.91569 1.17803 0.953263 1.15939 1.16554 0.934573 0.934404 1.15941 0.952934 1.17817 1.17195 0.921845 0.940862 1.17795 1.17814 0.946735 1.18416 0.940474 1.18424 1.19055 0.909595 1.18417 1.18445 0.952916 1.17827 0.959469 1.18438 1.19689 0.909215 0.928273 1.18436 0.947022 1.1908 1.15959 0.922055 0.953271 1.15928 1.17194 0.934483 0.940694 1.08434 1.0717 1.17177 1.07163 1.05333 1.06582 1.16547 1.05301 0.852893 1.07821 1.05936 1.16545 1.08427 1.04672 1.17199 1.05921 0.884562 1.06562 1.15324 1.06542 1.04706 1.16545 0.896806 1.05298 1.16566 1.05306 1.17212 0.878068 1.05322 1.17828 1.04667 1.07199 1.18437 1.02791 0.928034 1.17825 1.18435 1.02816 1.18422 1.02207 1.04038 0.903078 1.01578 1.05913 1.17205 1.06553 1.04691 1.16573 1.03458 1.17194 1.04697 1.05933 0.88431 1.04042 1.17798 1.03413 1.17827 1.18456 0.890571 1.17813 1.03434 0.884264 1.12205 0.921731 1.028 1.12813 0.934244 1.01561 1.12171 0.928249 1.00311 1.12799 0.959208 1.04686 1.05302 0.984157 1.03439 1.12209 1.02792 1.12207 0.959576 1.03461 1.12807 1.02211 0.971878 1.04058 0.953007 1.11586 1.02195 0.990821 1.10949 1.0406 0.990592 1.10322 1.04667 1.01567 1.11585 0.996833 1.1221 1.00323 0.89064 1.04068 1.0405 1.13434 1.03452 1.04671 1.00933 0.934162 1.03432 1.02194 1.14083 1.03451 0.990598 1.1346 1.14683 0.98446 1.15315 1.01555 0.971753 1.0221 1.12825 0.927998 1.00925 1.02789 1.03423 0.946872 1.04059 1.12203 1.00331 0.94072 0.990431 1.11564 0.915527 1.14706 1.00924 1.13428 0.915676 1.10943 1.00957 0.959596 1.10332 0.946886 0.990771 1.07796 0.953298 1.01586 1.10946 0.965721 1.00333 1.09078 0.928323 0.978144 0.915704 1.05926 1.0221 0.971925 1.04709 0.965765 0.990819 1.07826 1.00304 0.977897 1.02803 0.984276 1.02799 1.04682 0.984487 1.00925 1.05303 1.00318 0.978138 1.10924 0.984554 1.11558 1.00303 1.01573 1.09676 1.10303 1.00947 0.996728 1.00932 0.978015 1.11573 0.990732 1.01574 1.1279 0.971647 1.00925 1.10943 0.996692 0.984429 1.09067 0.990554 0.996766 0.940638 1.06567 1.01574 1.09706 0.99066 0.959508 0.98433 1.10306 0.96584 0.971928 1.1155 0.965434 0.921916 1.09079 0.959501 1.15309 0.946968 0.978321 1.15302 1.15914 1.14681 0.940479 1.16557 0.996922 1.1532 1.16541 1.14067 0.959477 0.940479 1.00923 1.14044 1.1342 1.1593 1.00316 0.959503 1.14679 0.99072 1.16581 1.15956 0.971903 1.01559 1.16541 1.17208 1.14686 0.934496 1.1531 0.990504 1.15936 1.15936 0.965439 0.959354 1.01548 0.947074 0.921941 0.896831 1.15962 0.903058 0.940575 1.15307 0.927995 1.12165 0.927961 1.13438 0.928312 0.934524 1.10933 0.928219 0.928344 1.12818 0.959215 1.14666 0.922105 1.12207 0.996812 0.934213 1.12177 0.946667 1.12208 0.884397 0.890399 1.10928 0.934391 0.94706 1.12823 0.871893 1.02826 1.10298 0.909263 1.1408 0.984221 1.14076 0.922028 0.94692 0.859572 1.13437 0.953091 1.15289 0.89087 1.14085 0.996861 1.14674 0.872017 1.12813 0.934231 0.965672 0.915407 1.1155 0.946838 0.903252 0.859586 1.12797 0.971896 0.878041 1.13418 0.909521 0.852951 1.10294 0.953245 0.965805 1.13426 0.847028 0.903124 0.934521 0.952994 0.91549 0.965434 0.921658 0.972025 0.909586 0.909369 0.940741 0.940532 0.809292 0.959593 0.952886 0.859582 0.965852 0.952979 0.853244 0.915423 0.890842 0.934591 0.953258 0.865685 0.928302 0.946983 0.940613 0.896651 0.809422 0.959413 0.921928 0.953079 0.897063 0.984251 0.88445 0.777941 0.928341 0.859221 0.915547 0.903261 0.934402 0.934402 0.709468 0.915603 0.928262 0.946926 0.709308 0.928272 0.921716 0.715707 0.903223 0.915653 0.946984 0.915764 1.08418 1.0971 1.07837 1.07209 1.07182 1.08423 0.834578 1.09692 1.09055 1.07812 1.08413 0.778248 1.09705 1.06542 1.07189 1.07795 1.04062 1.06571 1.06565 1.07813 1.0845 1.07822 1.0655 1.10311 1.11574 1.09707 1.09055 1.09663 1.10952 1.12164 1.10961 1.09054 1.00922 1.09709 1.10295 1.09693 1.06546 1.07819 1.10309 1.09053 0.971715 1.07207 1.05962 1.07174 0.984425 1.08419 1.0843 1.02201 1.09057 1.07811 1.08448 0.965391 1.07183 1.03428 1.06571 1.05961 1.01559 0.978111 1.04699 1.00929 1.03456 1.04704 1.04054 1.05946 0.897086 1.05325 1.04085 1.05304 1.05916 0.971805 1.03454 1.02208 1.01581 0.947038 1.04062 1.02826 1.02821 0.959272 1.01574 1.01539 0.997105 1.05309 1.0344 0.940777 1.03444 0.99057 1.02807 1.05932 0.959526 0.984416 1.07816 1.06542 0.965671 1.04084 0.990563 1.05337 1.07164 1.07175 0.984301 1.07809 1.05962 0.978254 1.05953 1.04673 0.971909 0.990428 1.04682 1.03419 0.934363 1.02827 1.05295 1.03416 0.959197 1.0467 1.04078 0.95293 0.952929 1.06578 1.03455 0.953341 1.0407 0.940618 1.02805 1.10957 1.12788 0.972034 1.10304 1.00325 1.09705 1.11573 0.997044 1.10936 0.972118 1.12208 1.14078 1.10956 0.928283 1.01566 1.14064 1.11546 1.10955 0.990459 1.11545 0.953157 1.11543 1.10319 0.984194 1.11551 0.959543 1.09054 1.0844 0.965746 1.10314 0.878285 1.09696 1.09697 1.0907 0.965743 0.934586 1.12825 1.1219 0.946717 0.902912 1.1342 1.13459 0.959159 1.09702 0.872011 1.12821 1.09042 1.14663 0.971828 0.784326 1.09086 1.10929 1.07195 0.972114 1.06587 1.08438 1.19708 0.953158 1.07818 1.08445 0.903194 1.07797 0.915869 1.09693 1.10302 0.890717 1.10944 1.0783 1.1221 0.928223 1.0592 1.09085 0.847106 1.07796 0.934332 1.08434 1.06559 1.07205 0.928214 0.796871 1.07175 1.04677 0.92201 1.07817 1.09053 1.08455 0.903108 1.07166 1.10322 1.06576 1.05315 1.05919 1.0656 1.05305 1.03445 1.04699 0.71587 1.05942 1.0657 1.05914 1.0529 1.04051 1.04684 1.05914 1.103 1.0905 1.06582 0.928153 1.05336 0.865691 1.07817 1.04086 0.921643 0.82187 1.04041 1.04664 1.10301 0.921831 1.07212 0.865508 1.04082 1.02198 0.915745 1.04046 1.07167 0.828227 1.05292 0.940441 1.04701 1.0782 0.93423 1.05335 1.08415 1.03424 0.928144 1.01566 1.05933 1.05289 1.08428 0.909609 0.978334 0.997095 0.902945 1.00309 0.990765 1.02168 0.896825 0.990638 1.0031 0.990828 1.0095 1.00303 1.00288 0.990752 1.00316 1.00918 0.990389 0.971762 0.990813 0.990843 0.946675 0.996695 0.978203 0.984289 0.940707 0.953118 0.984601 0.978274 0.953245 0.965436 0.98414 0.921759 0.978029 0.965816 0.965779 1.01545 0.997084 0.997109 0.996725 0.971892 0.984473 0.928226 0.984361 0.978071 1.02814 1.02163 1.04677 1.00327 0.984621 1.02184 1.01556 1.02833 0.97169 1.02212 1.02172 0.934232 1.04045 1.02201 1.00937 0.934306 1.02173 0.990715 1.02169 1.00308 1.02811 1.00925 0.934574 0.990445 1.01582 1.00305 1.01574 0.972051 0.996958 0.997095 0.946741 0.978344 0.959151 0.965529 0.978354 0.965551 1.00306 0.996645 0.953196 0.946719 0.921785 0.997017 0.946769 0.971844 0.971976 0.965558 0.959315 0.959415 0.953341 0.965811 0.940849 0.959507 0.97175 0.971934 0.946634 0.978118 0.978323 0.965511 0.953148 0.971664 0.940465 0.971986 0.928048 0.940669 0.984175 0.946954 0.959528 0.934603 0.92196 0.940692 0.965825 0.934613 0.959586 0.947096 0.953069 0.940873 0.953088 0.896655 0.934212 0.972014 0.940795 0.921693 0.996876 1.0092 0.952953 0.959603 0.978161 0.947029 0.959517 0.940489 0.921956 0.98415 0.940507 0.990499 0.971969 0.940462 1.0093 0.921757 0.972026 1.00302 0.953117 0.990739 0.922109 0.92803 0.897039 0.959354 0.965808 0.971693 0.977894 0.928301 0.971957 0.915584 0.959281 0.934243 0.984589 0.928081 0.953102 0.984512 0.96553 0.921815 0.978174 0.921884 0.984255 1.04697 1.02812 0.884535 1.02788 1.00938 1.0532 0.89702 1.03444 1.05925 1.04703 0.915629 1.03449 1.01549 0.865717 1.0346 0.859444 1.04664 1.01547 1.04077 0.87181 1.02798 0.990418 1.01561 0.996703 1.02165 1.00313 0.9344 0.996706 1.00293 0.909599 1.0595 1.03448 0.903081 1.0217 1.01562 1.00315 0.971928 0.896838 1.00946 1.06541 0.959615 1.0283 1.07202 1.03413 0.915613 1.05334 0.940684 1.0407 1.01558 0.94665 1.02202 1.04068 1.00922 0.897111 1.02788 0.971718 1.04678 0.953131 0.98458 0.984348 1.0094 0.902914 1.0092 1.01586 1.00303 0.996769 0.996653 0.903353 1.00307 0.990384 1.02809 0.984506 0.90311 0.997041 1.00914 1.02163 0.984243 0.90953 0.978294 0.984266 1.01576 0.878286 0.977915 1.00322 0.965771 0.990668 1.03432 0.884598 0.95298 0.903046 1.03428 0.959232 0.934133 0.971675 0.971772 1.03416 0.928132 0.990527 0.977918 0.971814 0.940794 0.965622 1.02822 0.959233 0.928339 0.95331 0.997112 0.978299 1.02809 0.921996 1.00959 1.00303 0.977977 0.959558 0.965861 0.865607 1.02811 1.0406 0.965849 0.996705 0.990456 1.02175 0.996989 0.934573 0.971633 0.953166 1.06556 1.00924 0.990504 0.990538 0.959149 0.959547 1.00934 0.940848 0.953242 0.978181 1.00312 1.0156 0.978039 0.940683 0.959625 1.00334 1.07189 0.890393 0.965728 1.05324 0.921767 1.04075 0.978342 1.05313 0.915811 1.07187 0.884424 0.840537 0.88413 1.04701 0.871772 0.921762 1.01587 0.972048 0.996814 0.878188 0.947123 1.04038 0.871976 0.965851 1.03452 0.921855 0.909299 0.853265 0.909431 1.01555 0.940679 0.884503 1.00955 0.896848 0.909541 0.946851 0.909567 0.947062 0.915499 0.940855 0.928355 0.965541 0.878333 0.953102 0.846995 0.959413 0.847036 0.940721 0.828152 0.915604 0.890439 0.834532 0.896751 0.890492 0.922038 0.902978 0.896948 0.928188 0.872025 0.859232 0.947098 0.884175 0.834484 0.915609 0.828116 0.909388 0.902963 0.977896 0.896801 0.996857 0.878219 0.909581 0.971842 0.852886 0.896914 0.909143 0.990676 0.865841 0.859484 0.98432 0.859187 0.953101 0.890483 0.840706 0.921825 0.909399 0.928339 0.846855 0.884385 0.934601 0.871985 0.865489 0.965627 0.834449 0.915722 0.86566 1.08435 0.896752 0.859609 1.05915 0.872027 1.06586 0.834416 1.07821 0.828309 1.0779 1.05336 1.04076 1.02169 0.859625 1.04674 1.06552 0.840788 0.853222 1.05956 0.922087 1.02163 0.928209 1.09677 0.890422 0.909522 1.07191 0.934516 1.07188 0.903318 1.0844 0.934156 0.853069 1.11562 0.928142 1.0782 0.821773 0.897042 1.05925 0.859232 0.87821 0.921932 1.04081 0.890624 1.07206 0.834142 0.890381 1.06587 0.846867 0.884338 0.878023 0.909432 1.04053 0.878104 0.897106 1.00328 0.828284 0.91575 0.984294 0.884495 0.834209 0.915715 0.990477 0.821989 0.897083 0.815611 0.859213 1.00953 0.884463 0.871761 0.865578 1.00336 0.834374 0.84044 0.978246 0.852996 0.853349 0.922072 0.877903 0.934459 0.828292 0.890645 0.984602 0.927918 0.86544 0.97183 0.840838 0.940781 0.827887 1.00292 1.00943 0.815537 0.809367 0.990809 0.840817 0.822012 0.815535 1.02832 0.834275 1.01561 1.00308 0.903007 0.978038 0.890504 0.928154 0.934458 0.997102 0.940516 0.909349 0.953178 0.978007 0.996739 0.959526 0.87833 0.971871 0.953278 0.996889 0.846662 0.921868 0.840708 0.959299 1.00313 0.928155 0.853178 0.915779 0.865566 0.884175 0.984515 0.9158 0.878234 0.853041 0.87829 0.915647 0.846843 0.902992 0.890474 0.884484 0.93449 0.822089 0.947091 0.834279 0.902918 0.884263 0.921643 0.853226 0.952978 0.865466 0.884294 0.915469 0.834281 0.896839 0.871671 0.909185 0.909292 0.846866 0.909139 0.89085 0.877929 0.927946 0.859373 0.884198 0.971717 0.853021 0.965514 0.828287 0.946719 0.865725 0.947007 0.965759 0.884405 0.934612 0.890467 0.947101 0.840618 0.95962 0.890843 0.971965 0.897093 0.852981 0.927991 0.83456 0.940598 0.922036 0.934196 0.878285 0.940465 0.921921 0.915381 0.959233 0.896649 0.928294 0.92197 0.877877 0.934323 0.946788 0.878013 0.940455 0.859143 0.940436 0.853293 0.903255 0.846799 0.928035 1.02209 0.847104 0.884127 0.896887 0.853211 0.859257 0.902942 0.90927 0.909274 0.915761 0.897015 0.909227 0.909268 0.871788 0.840755 0.909492 0.921935 0.865712 0.871712 0.903178 0.865508 0.865565 0.859382 0.840601 0.878089 0.827925 0.940438 0.852994 0.840392 0.846686 0.846755 0.909493 0.859343 0.809437 0.821719 0.915425 0.81576 0.915645 0.984433 0.80331 0.884157 0.853026 0.815673 0.927877 0.840573 0.959167 0.884447 0.822122 0.909326 0.890685 0.859579 0.871739 0.872115 0.83454 0.809224 0.865828 0.896868 0.80314 0.877934 0.884512 0.790616 0.853306 0.940646 0.809562 0.859303 0.821843 0.902942 0.790584 0.896698 0.840803 0.809622 0.896942 0.815814 0.84673 0.865758 0.796998 0.840555 0.853047 0.84697 0.834386 0.915687 0.821691 0.871727 0.921858 0.83424 0.846641 0.909595 0.871859 0.915466 0.953362 0.834392 1.1842 1.1906 0.896893 1.19068 0.80303 1.19062 0.934429 1.19669 0.790412 1.19071 1.19664 1.19073 0.834269 0.903209 1.1905 0.815875 1.18448 0.928304 1.19668 0.915853 0.827968 1.19064 1.18429 1.19068 0.909507 1.19674 0.796776 1.19064 1.19084 1.19705 0.828012 1.1846 0.909355 1.18452 1.18459 0.853257 1.18416 1.17793 0.878191 0.790695 1.17203 0.890454 1.19069 0.82824 1.17203 1.18413 1.17803 0.89671 1.17837 0.90935 1.17797 0.815791 1.172 0.890504 1.17814 1.17205 1.19056 1.17797 1.17175 0.902998 1.17173 1.16585 1.17196 1.16542 0.877933 1.16538 1.16581 1.17189 1.1657 1.17207 1.17203 1.19711 1.19065 1.1969 1.19081 1.1904 0.878084 1.19668 0.884219 1.19702 1.1906 1.17833 1.19665 0.884203 1.19046 1.19039 1.19697 1.19694 1.19663 1.19712 1.19696 0.890447 1.19702 1.18443 1.19071 1.19069 1.19042 1.18423 0.865678 1.17831 1.17814 1.18423 1.18429 0.87196 1.17799 1.18423 1.17813 0.871922 1.17813 1.17803 1.17163 1.18452 0.978329 1.17179 1.18459 1.18462 1.19087 1.17811 1.18448 1.19049 0.953043 1.17833 1.17803 1.17176 0.959255 1.18437 0.821676 1.18422 1.17195 1.17211 1.1779 0.953016 1.1655 1.16566 1.17192 1.15308 0.934172 1.16562 1.15915 1.14077 1.16564 1.15303 0.953243 1.1592 1.1592 1.15937 0.947085 0.877935 1.1779 1.16557 1.16552 0.940556 1.16575 1.15288 1.15937 1.15958 0.947083 1.14667 1.13421 0.790638 1.14072 1.14669 0.921668 1.1344 1.12805 1.14697 0.940384 0.934505 0.921674 1.12186 1.14052 1.12796 0.946697 0.927885 1.11542 0.921837 1.15294 1.14048 1.1471 0.940755 1.14061 1.14082 1.12823 0.896957 1.13447 1.11556 0.915582 1.122 1.13462 1.14064 0.915745 1.1717 1.15932 0.921871 1.17206 1.15931 1.15326 0.915742 1.15951 1.14704 1.15935 0.92821 1.15328 1.15924 0.922117 1.19039 1.16576 1.15934 0.915421 0.778229 1.17805 1.16541 1.16573 1.16554 0.915663 1.15328 0.752882 1.15918 1.16541 0.934612 1.14664 0.796625 1.15948 1.14699 1.15313 1.15288 0.896805 1.15328 1.1467 0.928329 1.14674 1.14083 1.13426 0.915671 1.15313 1.14667 0.921756 1.13431 1.14082 1.15317 1.15321 0.9405 1.14674 1.14668 1.15309 1.14671 1.14048 0.909199 1.14052 1.14681 1.1343 1.12827 1.1971 1.19708 1.19706 0.897053 1.19707 0.934502 1.19669 1.19687 1.19041 1.19053 1.1907 1.19071 0.90289