# vtk DataFile Version 3.0
vtk output
ASCII
DATASET UNSTRUCTURED_GRID
POINTS 24586 float
0 0 0
1 0 0
1 1 0
0 1 0
0 0 0
0 0 0
1 0 0
1 1 0
0 1 0
0 0 0
0 0 0
1 0 0
1 1 0
0 1 0
0 0 0
0 0 0
1 0 0
1 1 0
0 1 0
0 0 0
0 0 0
1 0 0
1 1 0
0 1 0
0 0 0
0 0 0
1 0 0
1 1 0
0 1 0
0 0 0
0 0 0
1 0 0
1 1 0
0 1 0
0 0 0
0 0 0
1 0 0
1 1 0
0 1 0
0 0 0
0 0 0
1 0 0
1 1 0
0 1 0
0 0 0
0 0 0
1 0 0
1 1 0
0 1 0
0 0 0
0 0 0
1 0 0
1 1 0
0 1 0
0 0 0
0 0 0
1 0 0
1 1 0
0 1 0
0 0 0
0 0 0
1 0 0
1 1 0
0 1 0
0 0 0
0 0.645899 0
0.491874 0.896623 0
0.521006 0.91234 0
0.523698 0.913834 0
0.668731 1 0
0 1 0
0 0.645899 0
0 0 0
1 0 0
1 1 0
0 1 0
0 0 0
0 0 0
1 0 0
1 1 0
0 1 0
0 0 0
0 0 0
1 0 0
1 1 0
0 1 0
0 0 0
0 0 0
1 0 0
1 1 0
0 1 0
0 0 0
0 0 0
1 0 0
1 1 0
0 1 0
0 0 0
0 0.434019 0
0.553957 0.810623 0
0.639484 0.871219 0
0.813009 1 0
0 1 0
0 0.434019 0
0 0 0
1 0 0
1 1 0
0 1 0
0 0 0
0 0 0
1 0 0
1 1 0
0 1 0
0 0 0
0 0 0
1 0 0
1 1 0
0 1 0
0 0 0
0 0.45383 0
0.537313 0.816663 0
0.636996 0.886845 0
0.790327 1 0
0 1 0
0 0.45383 0
0 0 0
1 0 0
1 1 0
0 1 0
0 0 0
0 0 0
1 0 0
1 1 0
0 1 0
0 0 0
0 0.645491 0
0.498154 0.895148 0
0.516603 0.904925 0
0.52685 0.910513 0
0.680276 1 0
0 1 0
0 0.645491 0
0 0 0
1 0 0
1 1 0
0 1 0
0 0 0
0 0 0
1 0 0
1 1 0
0 1 0
0 0 0
0 0.651111 0
0.50977 0.891894 0
0.533107 0.90392 0
0.70712 1 0
0 1 0
0 0.651111 0
0 0 0
1 0 0
1 1 0
0 1 0
0 0 0
0 0 0
1 0 0
1 1 0
0 1 0
0 0 0
0 0 0
1 0 0
1 1 0
0 1 0
0 0 0
0 0 0
1 0 0
1 1 0
0 1 0
0 0 0
0 0 0
1 0 0
1 1 0
0 1 0
0 0 0
0 0 0
1 0 0
1 1 0
0 1 0
0 0 0
0 0.192322 0
1 0.744592 0
1 1 0
0 1 0
0 0.192322 0
0 0 0
1 0 0
1 1 0
0 1 0
0 0 0
0 0 0
1 0 0
1 1 0
0 1 0
0 0 0
0 0 0
1 0 0
1 1 0
0 1 0
0 0 0
0 0 0
1 0 0
1 1 0
0 1 0
0 0 0
0 0 0
1 0 0
1 1 0
0 1 0
0 0 0
0 0 0
1 0 0
1 1 0
0 1 0
0 0 0
0 0 0
1 0 0
1 1 0
0 1 0
0 0 0
0 0 0
0.286444 0 0
1 0.610143 0
1 1 0
0 1 0
0 0 0
0 0 0
1 0 0
1 1 0
0 1 0
0 0 0
0 0 0
1 0 0
1 1 0
0 1 0
0 0 0
0 0 0
1 0 0
1 1 0
0 1 0
0 0 0
0 0 0
1 0 0
1 1 0
0 1 0
0 0 0
0 0 0
1 0 0
1 1 0
0 1 0
0 0 0
0 0 0
1 0 0
1 1 0
0 1 0
0 0 0
0 0 0
1 0 0
1 1 0
0 1 0
0 0 0
0 0 0
1 0 0
1 1 0
0 1 0
0 0 0
0 0 0
0.166222 0 0
0.267907 0.0603391 0
1 0.514537 0
1 1 0
0 1 0
0 0 0
0 0 0
1 0 0
1 1 0
0 1 0
0 0 0
0 0 0
1 0 0
1 1 0
0 1 0
0 0 0
0 0 0
1 0 0
1 1 0
0 1 0
0 0 0
0 0 0
1 0 0
1 1 0
0 1 0
0 0 0
0 0.266251 0
0.984675 0.771265 0
1 0.779473 0
1 1 0
0 1 0
0 0.266251 0
0 0 0
1 0 0
1 1 0
0 1 0
0 0 0
0 0 0
1 0 0
1 1 0
0 1 0
0 0 0
0 0 0
1 0 0
1 1 0
0 1 0
0 0 0
0 0 0
1 0 0
1 1 0
0 1 0
0 0 0
0 0 0
1 0 0
1 1 0
0 1 0
0 0 0
0 0 0
1 0 0
1 1 0
0 1 0
0 0 0
0 0.0649096 0
0.791679 0.555575 0
1 0.690541 0
1 1 0
0 1 0
0 0.0649096 0
0 0 0
1 0 0
1 1 0
0 1 0
0 0 0
0 0 0
1 0 0
1 1 0
0 1 0
0 0 0
0 0 0
1 0 0
1 1 0
0 1 0
0 0 0
0 0 0
1 0 0
1 1 0
0 1 0
0 0 0
0 0 0
1 0 0
1 1 0
0 1 0
0 0 0
0 0 0
1 0 0
1 1 0
0 1 0
0 0 0
0 0 0
0.197162 0 0
0.328174 0.0967697 0
0.808927 0.460918 0
1 0.609833 0
1 1 0
0 1 0
0 0 0
0 0 0
1 0 0
1 1 0
0 1 0
0 0 0
0 0 0
1 0 0
1 1 0
0 1 0
0 0 0
0 0 0
1 0 0
1 1 0
0 1 0
0 0 0
0 0 0
1 0 0
1 1 0
0 1 0
0 0 0
0 0 0
1 0 0
1 1 0
0 1 0
0 0 0
0 0 0
1 0 0
1 1 0
0 1 0
0 0 0
0 0 0
1 0 0
1 1 0
0 1 0
0 0 0
0 0 0
1 0 0
1 1 0
0 1 0
0 0 0
0 0 0
0.324684 0 0
0.893584 0.392238 0
1 0.467195 0
1 1 0
0 1 0
0 0 0
0 0 0
1 0 0
1 1 0
0 1 0
0 0 0
0 0 0
1 0 0
1 1 0
0 1 0
0 0 0
0 0 0
1 0 0
1 1 0
0 1 0
0 0 0
0 0 0
0.279379 0 0
0.958961 0.476518 0
1 0.506185 0
1 1 0
0 1 0
0 0 0
0 0 0
1 0 0
1 1 0
0 1 0
0 0 0
0 0 0
1 0 0
1 1 0
0 1 0
0 0 0
0 0 0
1 0 0
1 1 0
0 1 0
0 0 0
0 0 0
1 0 0
1 1 0
0 1 0
0 0 0
0 0 0
1 0 0
1 1 0
0 1 0
0 0 0
0 0 0
0.258817 0 0
1 0.583005 0
1 1 0
0 1 0
0 0 0
0 0 0
1 0 0
1 1 0
0 1 0
0 0 0
0 0 0
1 0 0
1 1 0
0 1 0
0 0 0
0 0 0
1 0 0
1 1 0
0 1 0
0 0 0
0 0 0
1 0 0
1 1 0
0 1 0
0 0 0
0 0 0
1 0 0
1 1 0
0 1 0
0 0 0
0 0 0
1 0 0
1 1 0
0 1 0
0 0 0
0 0 0
1 0 0
1 1 0
0 1 0
0 0 0
0 0 0
0.101502 0 0
0.542319 0.254703 0
0.935051 0.487826 0
1 0.527947 0
1 1 0
0 1 0
0 0 0
0 0 0
1 0 0
1 1 0
0 1 0
0 0 0
0 0 0
1 0 0
1 1 0
0 1 0
0 0 0
0 0 0
1 0 0
1 1 0
0 1 0
0 0 0
0 0 0
1 0 0
1 1 0
0 1 0
0 0 0
0 0 0
1 0 0
1 1 0
0 1 0
0 0 0
0 0.348417 0
0.787827 0.725183 0
1 0.832519 0
1 1 0
0 1 0
0 0.348417 0
0 0 0
1 0 0
1 1 0
0 1 0
0 0 0
0 0 0
1 0 0
1 1 0
0 1 0
0 0 0
0 0 0
1 0 0
1 1 0
0 1 0
0 0 0
0 0 0
1 0 0
1 1 0
0 1 0
0 0 0
0 0 0
1 0 0
1 1 0
0 1 0
0 0 0
0 0.0927112 0
0.217002 0.235811 0
0.76378 0.607539 0
1 0.773747 0
1 1 0
0 1 0
0 0.0927112 0
0 0.109352 0
0.204123 0.239389 0
0.764252 0.607336 0
1 0.767661 0
1 1 0
0 1 0
0 0.109352 0
0 0.280801 0
0.615668 0.543274 0
1 0.716349 0
1 1 0
0 1 0
0 0.280801 0
0 0.25581 0
0.136165 0.335775 0
1 0.861589 0
1 1 0
0 1 0
0 0.25581 0
0 0.233064 0
0.602715 0.533793 0
0.86039 0.666996 0
1 0.743485 0
1 1 0
0 1 0
0 0.233064 0
0 0 0
0.0416922 0 0
0.237975 0.124553 0
1 0.620761 0
1 1 0
0 1 0
0 0 0
0 0 0
0.0929736 0 0
0 0.0612988 0
0 0 0
0 0 0
0.398718 0 0
1 0.51667 0
1 1 0
0 1 0
0 0 0
0 0 0
0.142268 0 0
0 0.0999995 0
0 0 0
0 0 0
0.0502201 0 0
0.552516 0.286821 0
1 0.55006 0
1 1 0
0 1 0
0 0 0
0 0.0339049 0
1 0.632384 0
1 1 0
0 1 0
0 0.0339049 0
0 0 0
1 0 0
1 1 0
0 1 0
0 0 0
0 0 0
1 0 0
1 1 0
0 1 0
0 0 0
0.724413 0 0
1 0 0
1 0.173163 0
0.724413 0 0
0 0 0
1 0 0
1 1 0
0 1 0
0 0 0
0 0 0
1 0 0
1 1 0
0 1 0
0 0 0
0 0 0
1 0 0
1 1 0
0 1 0
0 0 0
0 0 0
1 0 0
1 1 0
0 1 0
0 0 0
0 0 0
1 0 0
1 1 0
0 1 0
0 0 0
0 0 0
1 0 0
1 1 0
0 1 0
0 0 0
0 0 0
1 0 0
1 1 0
0 1 0
0 0 0
0 0 0
1 0 0
1 1 0
0 1 0
0 0 0
0 0 0
1 0 0
1 1 0
0 1 0
0 0 0
0 0 0
1 0 0
1 1 0
0 1 0
0 0 0
0.829471 0 0
1 0 0
1 0.0948626 0
0.829471 0 0
0 0 0
0.24697 0 0
1 0.444749 0
1 1 0
0 1 0
0 0 0
0 0 0
1 0 0
1 1 0
0 1 0
0 0 0
0 0 0
0.0610509 0 0
0.538891 0.255707 0
0.941136 0.476831 0
1 0.510545 0
1 1 0
0 1 0
0 0 0
0 0.0570429 0
1 0.627151 0
1 1 0
0 1 0
0 0.0570429 0
0 0 0
1 0 0
1 1 0
0 1 0
0 0 0
0 0 0
0.0777667 0 0
0 0.0476363 0
0 0 0
0 0 0
1 0 0
1 1 0
0 1 0
0 0 0
0 0 0
1 0 0
1 1 0
0 1 0
0 0 0
0 0 0
1 0 0
1 1 0
0 1 0
0 0 0
0 0 0
1 0 0
1 1 0
0 1 0
0 0 0
0 0 0
1 0 0
1 1 0
0 1 0
0 0 0
0.905843 0 0
1 0 0
1 0.0579115 0
0.905843 0 0
0.783514 0 0
1 0 0
1 0.136719 0
0.783514 0 0
0 0.491165 0
0.283204 0.373114 0
0.338388 0.350955 0
0.936129 1 0
0 1 0
0 0.491165 0
0.822728 0 0
1 0 0
1 0.122981 0
0.822728 0 0
0 0.299065 0
1 0.906764 0
1 1 0
0 1 0
0 0.299065 0
0 0 0
0.257488 0 0
0 0.139898 0
0 0 0
0 0.343941 0
1 0.901892 0
1 1 0
0 1 0
0 0.343941 0
0 0.369791 0
1 0.903616 0
1 1 0
0 1 0
0 0.369791 0
0 0 0
0.194076 0 0
0 0.0783925 0
0 0 0
0 0.393852 0
0.793153 0.707105 0
1 0.794147 0
1 1 0
0 1 0
0 0.393852 0
0 0.300984 0
0.978432 0.729775 0
1 0.739695 0
1 1 0
0 1 0
0 0.300984 0
0 0.00711888 0
0.00328207 0.00932613 0
1 0.692897 0
1 1 0
0 1 0
0 0.00711888 0
0.561091 0 0
1 0 0
1 0.243588 0
0.561091 0 0
0 0 0
0.307766 0 0
0 0.138228 0
0 0 0
0 0.589673 0
0.145673 0.533213 0
0.46484 0.416337 0
1 0.985103 0
1 1 0
0 1 0
0 0.589673 0
0.611925 0 0
1 0 0
1 0.204757 0
0.611925 0 0
0 0.562883 0
0.622168 0.294052 0
0.885292 0.480041 0
1 0.563528 0
1 1 0
0 1 0
0 0.562883 0
0 0 0
0.441761 0 0
0.0728552 0.22441 0
0 0.267377 0
0 0 0
0 0.302917 0
0.961828 0.750862 0
1 0.769445 0
1 1 0
0 1 0
0 0.302917 0
0.608784 0 0
1 0 0
1 0.152851 0
0.88876 0.11129 0
0.608784 0 0
0 0.389969 0
0.812569 1 0
0 1 0
0 0.389969 0
0 0.131899 0
0.46905 0.554492 0
0.940581 1 0
0 1 0
0 0.131899 0
0.433305 0 0
1 0 0
1 0.358636 0
0.433305 0 0
0 0.674672 0
0.497681 0.895259 0
0.515959 0.903841 0
0.527749 0.909565 0
0.701087 1 0
0 1 0
0 0.674672 0
0.54651 0 0
1 0 0
1 0.189508 0
0.823603 0.118505 0
0.54651 0 0
0 0.52193 0
0.108175 0.586782 0
0.774192 1 0
0 1 0
0 0.52193 0
0 0.410398 0
0.867067 1 0
0 1 0
0 0.410398 0
0.859466 0 0
1 0 0
1 0.0475688 0
0.859466 0 0
0 0.475587 0
0.551431 0.811539 0
0.640026 0.867815 0
0.838035 1 0
0 1 0
0 0.475587 0
0 0.166348 0
0.46268 0.56118 0
0.952751 1 0
0 1 0
0 0.166348 0
0.906437 0 0
1 0 0
1 0.0393127 0
0.906437 0 0
0 0.2649 0
0.597005 0.747615 0
0.865162 0.972243 0
0.896724 1 0
0 1 0
0 0.2649 0
0.680803 0 0
1 0 0
1 0.248628 0
0.680803 0 0
0.765231 0 0
1 0 0
1 0.164727 0
0.765231 0 0
0 0.559451 0
0.569748 0.306035 0
0.921139 0.516714 0
1 0.565424 0
1 1 0
0 1 0
0 0.559451 0
0.590625 0 0
1 0 0
1 0.197101 0
0.690485 0.051786 0
0.590625 0 0
0 0.427981 0
0.872249 1 0
0 1 0
0 0.427981 0
0.588907 0 0
1 0 0
1 0.167504 0
0.609803 0.00915558 0
0.588907 0 0
0 0.565751 0
0.124891 0.515679 0
1 0.183063 0
1 1 0
0 1 0
0 0.565751 0
0 0.189721 0
0.462987 0.560858 0
0.985058 1 0
0 1 0
0 0.189721 0
0.629984 0 0
1 0 0
1 0.215118 0
0.629984 0 0
0 0 0
0.0149705 0 0
0.554863 0.286222 0
1 0.529254 0
1 1 0
0 1 0
0 0 0
0.872095 0 0
1 0 0
1 0.0319617 0
0.872095 0 0
0 0.503826 0
0.496656 0.331673 0
1 0.733786 0
1 1 0
0 1 0
0 0.503826 0
0 0 0
0.131485 0 0
0 0.0543596 0
0 0 0
0 0 0
0.219561 0 0
1 0.430872 0
1 1 0
0 1 0
0 0 0
0 0.0125373 0
0.0427963 0.037847 0
1 0.615033 0
1 1 0
0 1 0
0 0.0125373 0
0.983496 0 0
1 0 0
1 0.00840144 0
0.983496 0 0
0 0.00512685 0
0.551574 0.287061 0
1 0.523068 0
1 1 0
0 1 0
0 0.00512685 0
0 0 0
0.233143 0 0
0.782526 0.259485 0
1 0.365316 0
1 1 0
0 1 0
0 0 0
0 0 0
1 0 0
1 1 0
0 1 0
0 0 0
0.813405 0 0
1 0 0
1 0.119908 0
0.813405 0 0
0 0 0
0.0116601 0 0
0.203203 0.0870851 0
1 0.466204 0
1 1 0
0 1 0
0 0 0
0 0 0
0.227061 0 0
0.927583 0.38734 0
1 0.42821 0
1 1 0
0 1 0
0 0 0
0 0 0
1 0 0
1 1 0
0 1 0
0 0 0
0 0.559351 0
0.586785 0.291031 0
1 0.567368 0
1 1 0
0 1 0
0 0.559351 0
0.728233 0 0
1 0 0
1 0.203094 0
0.728233 0 0
0 0.369756 0
0.436934 0.171365 0
1 0.529558 0
1 1 0
0 1 0
0 0.369756 0
0.788913 0 0
1 0 0
1 0.141978 0
0.788913 0 0
0 0.0182872 0
0.205263 0.129913 0
1 0.572877 0
1 1 0
0 1 0
0 0.0182872 0
0.825064 0 0
1 0 0
1 0.0848654 0
0.825064 0 0
0.863723 0 0
1 0 0
1 0.0623488 0
0.863723 0 0
0 0.661678 0
0.633541 0.411418 0
0.669556 0.397666 0
0.767936 0.504158 0
1 0.761978 0
1 1 0
0 1 0
0 0.661678 0
0.526139 0 0
1 0 0
1 0.328985 0
0.526139 0 0
0.735004 0 0
1 0 0
1 0.0967018 0
0.799855 0.0249049 0
0.735004 0 0
0 0.482004 0
0.502108 0.31394 0
1 0.68565 0
1 1 0
0 1 0
0 0.482004 0
0 0.149416 0
0.826836 0.52321 0
1 0.605253 0
1 1 0
0 1 0
0 0.149416 0
0.772201 0 0
1 0 0
1 0.106183 0
0.772201 0 0
0 0.0690018 0
0.898963 0.452139 0
1 0.497068 0
1 1 0
0 1 0
0 0.0690018 0
0.691073 0 0
1 0 0
1 0.260169 0
0.993451 0.254914 0
0.691073 0 0
0.851319 0 0
1 0 0
[...]
CELL_DATA 4857
FIELD FieldData 3
weight 1 4857 float
 1.1281 1.07822 1.08456 1.09069 1.08454 1.0969 1.09056 1.08432 1.09702 1.0906 1.10315 1.0906 1.09703 1.00946 1.09086 1.09694 1.10308 1.11568 1.10932 1.05942 1.10312 1.09708 1.10301 1.04049 1.10913 1.12204 1.01583 1.11544 1.09052 1.02199 1.09671 1.09672 1.10327 1.10332 1.10324 1.09668 1.07797 1.09663 1.1092 1.10927 1.10302 1.10934 1.10332 1.11577 1.11543 1.10936 1.10951 1.10936 1.11587 1.11567 1.12168 1.11557 1.11571 1.14064 1.12195 1.12794 1.1281 1.10919 1.08445 1.10948 1.1094 1.12174 1.12804 1.11566 1.12189 1.103 1.11545 1.12201 1.12834 1.12193 1.11577 1.12789 1.1219 1.12212 1.12821 1.13423 1.1344 1.12819 1.13456 1.13427 1.14073 1.147 1.14066 1.12798 1.12831 1.12837 1.12183 1.19705 1.13429 1.13432 1.1404 1.13459 1.1219 1.12211 1.18438 1.12822 1.13415 1.12823 1.1343 1.13445 1.1404 1.12827 1.13448 1.13456 1.13418 1.06587 1.13435 1.14045 1.1405 1.14064 1.1407 1.09693 1.09042 1.1221 1.07818 1.10929 1.12807 0.702997 1.16573 0.715626 1.14087 1.14663 1.18454 1.1843 0.784139 1.19066 1.19687 1.19684 1.19667 1.19687 1.19677 1.19686 1.19063 1.19702 1.19684 0.778352 1.15931 1.19705 1.15316 1.1342 1.19043 0.709412 1.19673 1.19062 1.19669 1.19707 1.19687 0.753136 0.784255 1.04041 0.77164 1.0783 0.759466 1.10302 1.08438 0.79692 1.07205 1.10929 1.12821 0.834602 0.803001 1.04082 0.815395 1.07195 0.80926 1.10337 0.828007 1.03448 1.06585 0.853313 1.00948 0.846897 1.02828 1.05334 0.815566 1.05289 1.0592 0.802927 1.03436 0.790726 0.78449 1.09085 0.840522 1.04678 0.846726 1.10939 1.07202 0.828253 1.17185 0.82208 1.09086 0.746993 1.19044 1.17791 0.778322 1.18414 1.1968 1.19696 0.796685 1.19706 1.19666 1.19707 1.09676 0.797085 1.19674 0.803038 1.19708 0.815675 0.809496 1.08438 0.853101 0.840761 1.15932 1.19708 0.821786 1.19678 0.809215 0.803296 1.19686 0.796851 1.19683 0.834518 1.19701 0.815726 1.19702 0.827908 1.19076 0.80925 1.19675 1.15295 1.14681 1.15318 1.14691 1.15293 1.15317 1.15301 1.14071 0.865786 1.13415 1.14667 1.14711 1.14073 1.15297 0.840795 0.765823 1.15957 1.15916 1.16556 1.15927 1.16587 1.14697 1.15334 0.853098 1.15313 1.15913 1.15928 1.15324 1.14683 0.859549 1.15315 0.990456 1.1346 1.00925 1.15324 1.14067 1.12818 1.14706 1.12207 1.1342 1.13437 1.12797 1.14076 1.14682 1.15914 1.14679 0.97175 0.878357 1.14681 1.1593 0.984301 1.14666 1.1408 1.14085 0.871664 1.14697 1.14674 0.947123 1.15307 1.14072 1.1595 0.884339 0.95293 1.16577 1.15962 1.15939 0.934613 1.16579 1.16554 0.865399 1.17202 1.15944 1.16545 0.959526 0.871752 1.15941 1.17199 1.15959 1.17179 0.940873 1.17186 0.859236 1.17194 1.17807 0.946634 1.1721 1.17195 0.884185 1.16545 1.16566 1.16547 0.877938 1.16573 0.897111 1.15302 1.1532 0.878225 1.15309 1.16557 1.15936 0.890539 1.14686 0.909432 1.15289 1.16541 1.1531 1.15308 1.16581 0.890579 1.17798 0.871642 1.17212 1.15956 1.17813 1.16541 1.17208 0.909127 0.91566 1.15962 1.15915 0.903333 0.921996 1.1779 1.15936 1.15303 0.877998 1.12186 0.896845 1.13426 1.12163 0.903046 0.890494 1.11542 1.12805 1.13418 0.972048 1.11541 1.10294 1.11556 1.10962 0.953131 1.14052 0.903197 1.122 1.12796 0.940849 1.13421 1.1344 1.12176 0.965671 1.12792 0.897047 1.10962 0.978015 1.12182 1.11546 1.10945 0.909566 0.94665 1.09044 1.07824 1.09695 0.959149 0.903274 1.10325 1.10332 1.07166 0.915548 0.928339 1.07188 1.08413 0.86563 1.08423 0.88454 1.07822 1.07187 0.85948 1.07791 1.11575 1.10947 1.09087 1.11544 1.10305 0.846962 1.12179 0.896655 1.09708 1.0904 0.89053 1.07803 0.934133 1.09709 0.871703 1.07211 1.08417 0.921932 0.878223 1.14077 1.04048 1.14048 1.03434 1.12823 1.02826 0.865503 1.14669 1.05333 1.1471 1.05288 1.13447 1.04044 1.14064 0.84068 1.03413 1.13426 1.01561 1.12834 1.028 1.13462 0.859204 1.12807 1.00318 1.13431 1.02201 1.12197 1.00922 1.15294 0.996728 0.834433 1.00323 1.14674 1.05957 1.04667 1.14061 1.03433 1.14082 1.05311 0.85322 1.0406 1.04686 1.14083 1.02808 1.14667 1.01573 1.12827 0.865429 0.996833 1.14082 1.13446 0.978144 1.14681 0.871738 1.14058 1.02799 1.11543 0.852991 1.10961 1.0221 1.10945 1.00304 1.12789 1.10334 0.871918 1.12189 1.10305 0.965558 1.08425 0.903002 1.09059 1.09671 1.09043 0.897109 1.12184 0.953341 1.11563 0.884405 0.971928 1.1157 1.1346 1.12812 0.903339 1.10957 1.10289 0.959501 1.09674 1.10937 0.909586 1.10326 1.10941 1.17827 1.17803 1.17817 1.17828 1.18417 0.909501 1.18438 1.17177 1.18437 1.17205 1.17825 0.953341 1.18422 1.18456 1.18445 1.17814 0.909342 1.18436 1.18424 1.19055 1.18435 0.878292 0.940684 1.17203 1.1908 1.18413 0.890446 1.17803 1.17194 1.17195 0.884504 1.17205 0.909599 1.17211 1.16562 0.878276 1.16564 1.15288 0.9344 1.17192 0.8971 1.15937 1.14704 1.16575 0.921693 0.890784 1.17827 1.1655 0.928048 1.17175 1.17814 1.17797 0.915613 1.16566 1.15937 1.15958 1.1592 0.984554 1.1592 1.15932 1.1842 0.959615 1.19689 1.1906 1.19068 1.19073 0.965434 1.19069 1.17837 0.978321 1.1905 1.19056 1.19669 0.965765 1.19664 1.19668 1.19071 1.18452 1.18448 0.971664 1.17797 1.172 1.19064 1.17173 1.16585 1.1657 0.959315 1.17189 1.1779 0.946719 1.16538 1.17163 1.16557 0.928132 1.16552 1.1717 1.15931 0.953117 1.17206 1.16576 1.16541 1.16581 0.934574 1.17203 1.16542 1.17196 1.17207 0.90953 1.17813 0.821893 1.17803 1.15934 1.17179 0.859605 1.17805 1.17193 1.14667 0.790518 0.840512 1.15313 1.15328 1.15948 1.14699 0.828237 0.865533 1.1467 1.1343 0.852993 1.14052 1.15313 1.14046 0.846717 1.15326 1.15951 1.15288 0.828173 1.15328 1.15924 1.15321 1.14671 0.796675 1.14674 1.14668 1.15309 0.815458 1.14668 0.834171 1.1281 1.12211 0.846683 1.11543 1.13432 1.13461 0.821923 1.128 0.871629 1.12179 1.1154 1.10307 0.859308 1.12188 1.10939 0.890817 1.10916 1.11586 1.14048 0.878123 1.12808 1.12825 0.865687 1.14045 1.1346 1.12832 0.840429 1.12205 1.1219 1.11579 0.840721 1.10915 1.11541 0.828316 1.10922 1.15935 0.821967 1.15328 0.8345 1.16554 0.853109 1.15918 1.14664 1.15317 0.822087 1.15297 1.14065 1.1344 1.15946 0.827982 1.14076 1.15325 1.16573 1.16541 0.784167 1.15322 1.1717 1.17167 1.16546 1.16571 1.14663 1.14712 0.803145 1.16545 1.15942 0.815438 1.15918 1.1406 1.12791 1.14699 1.14668 1.13458 1.13421 1.12174 1.11553 0.796657 1.12212 1.12819 1.11563 1.10919 1.15315 1.14059 1.12799 1.12817 1.14074 1.13428 1.1219 0.846958 1.12204 0.790787 0.846627 1.11545 0.840563 0.815573 1.11572 1.06559 0.859211 1.04697 1.06577 1.05933 1.03458 0.852921 1.04058 0.803363 1.01578 1.02792 0.846698 1.03461 1.02195 0.859146 1.02803 1.06547 1.05333 0.73458 0.834217 1.04087 1.06539 1.05933 1.04691 1.05913 0.840444 1.04042 1.02211 1.03439 0.828068 1.05302 1.03451 1.02791 0.990554 0.846699 0.99066 0.853202 0.884598 0.840657 0.871678 0.865543 0.878286 0.972014 0.865434 1.00925 0.86572 1.01574 0.853361 0.98433 0.896838 0.87189 0.884148 0.959528 0.896825 0.890746 0.884461 0.853203 0.965511 0.878348 0.834349 0.890439 0.946741 0.846884 0.871783 0.859465 0.940692 0.859185 0.846866 0.865789 0.840473 0.971844 0.87829 0.903353 0.884175 0.890406 0.871788 0.934306 0.921757 0.953245 0.834202 1.00306 0.828246 0.903081 0.996692 0.828256 0.884592 0.822015 0.871951 0.997017 0.840416 0.852994 1.01574 0.840659 0.834361 1.00925 0.846686 0.98446 0.834298 0.87181 0.978354 0.878366 0.815485 0.821716 0.84062 0.984175 0.83454 0.859444 0.809424 0.965808 0.809268 0.821995 0.809324 0.959151 0.865565 0.978118 0.859373 0.965771 0.859343 0.809596 0.97169 0.865828 1.06568 0.821987 1.07194 1.06553 0.878089 1.09692 0.784427 1.07792 1.07791 0.871739 1.06562 0.790667 1.02816 1.05921 0.853306 1.05936 1.04672 1.05301 0.847122 1.09062 1.08449 0.834279 1.1029 0.734524 1.09669 0.871633 1.08427 1.05915 0.859255 0.740725 1.05322 1.09058 0.865861 1.07199 0.746996 1.05298 1.02207 0.827884 0.927912 1.0221 0.915702 1.00957 0.790859 1.02194 0.797009 0.934149 1.01586 0.790545 0.990771 0.946922 0.946675 0.777895 0.934269 0.934232 0.728152 0.940425 0.972051 0.92201 0.996645 0.921658 0.978203 0.753092 0.940478 1.04038 0.928295 1.03432 0.934521 1.01555 1.00933 0.940854 0.753229 1.04706 0.959423 1.04667 0.778239 1.0405 0.953003 1.00333 0.990828 0.959325 0.797016 0.978071 0.946915 1.00924 0.965436 0.990813 0.840755 1.00331 0.972063 0.83424 0.984601 0.965495 0.778165 0.90311 0.946691 0.815791 0.922109 0.953365 0.82824 0.89702 0.940831 0.928301 0.953255 0.765731 0.915789 0.959413 0.909572 0.947077 0.915629 0.915547 0.921716 0.815406 0.865389 0.809236 0.915603 0.834126 0.809571 0.915869 0.784459 0.827953 0.940532 0.834392 0.928341 0.853098 0.803317 0.934363 0.859407 0.84697 0.928223 0.890622 0.853293 0.846918 0.865712 0.903108 0.865665 0.921831 0.859257 0.928214 0.88445 0.921956 0.92201 0.947029 0.884127 0.946983 0.909521 0.878234 0.928323 0.90913 0.890467 0.946926 0.915704 0.934231 0.959603 0.940613 0.871859 0.884535 0.953258 0.878285 0.953163 0.940507 0.890843 0.959551 0.884405 0.897039 0.953079 0.865508 0.877944 0.934402 0.897063 0.896651 0.853367 0.928153 0.903261 0.865717 0.934332 0.921916 0.859508 0.940618 0.921928 0.952929 0.81582 0.928262 0.940441 0.946717 0.796704 0.77193 0.971951 0.978308 0.903124 0.977884 0.802896 0.984486 0.765726 0.98428 0.990718 0.99047 0.765458 0.972058 0.815626 0.946968 0.765569 0.965748 0.809286 0.971849 0.978243 0.81552 0.997086 0.984323 0.978139 0.996631 1.00333 0.996991 1.00337 1.02187 0.796979 1.00937 1.00337 0.996746 1.00962 1.01556 0.778058 1.00937 1.01569 0.965717 0.821651 0.959413 0.853211 0.784517 0.965581 0.815843 0.977937 0.821637 0.978254 0.822094 0.971909 0.828251 0.959197 0.803333 0.859352 0.790668 0.953158 0.796885 0.959159 0.82797 0.965746 0.972118 0.80299 0.972114 0.815804 0.809219 0.965743 0.771631 0.971828 0.809408 0.984251 0.990496 0.99057 1.00326 0.809509 0.997049 0.803013 0.765455 0.997105 0.815709 0.765671 0.984416 0.840763 0.984194 0.797081 0.990459 0.815722 1.00303 1.00325 0.797104 0.940462 0.846676 0.990563 0.934243 0.853338 0.902945 0.928226 0.87184 0.909609 0.815537 0.896751 0.896649 0.928081 0.897093 0.940707 0.915745 0.903223 0.822043 0.915618 0.921643 0.859428 0.878013 0.902978 0.840783 0.915584 0.915764 0.82821 0.915604 0.877877 0.828354 0.890461 0.934402 0.890474 0.834606 0.865823 0.840408 0.896839 0.853086 0.909369 0.884294 0.871711 0.952994 0.909388 0.871905 0.940741 0.859253 0.915609 0.902942 0.965434 0.921759 0.93423 0.865558 0.984621 0.865727 0.928188 0.921884 0.928144 0.909268 0.940855 0.840601 0.965779 0.947062 0.928302 0.940721 0.909274 0.921815 0.915423 0.921825 0.947 0.952953 0.909292 0.952979 0.902925 0.90927 0.909595 0.940479 0.928339 0.897014 0.859465 0.959593 0.922072 0.928199 0.934496 0.915722 0.903018 0.89085 0.952886 0.840697 0.877934 0.940638 0.884157 0.852923 0.897015 0.840523 0.959215 0.884384 0.797012 0.890418 0.971947 0.87789 0.809212 0.946886 0.846769 0.871712 0.940479 0.846757 0.884563 0.959508 0.821657 0.890498 0.996785 0.877918 0.82813 0.872122 0.984352 1.00962 0.903178 0.778243 1.00937 0.909326 0.978055 1.02837 0.896685 1.00303 0.784346 0.915425 0.953245 0.915645 0.847051 0.984276 0.902954 0.809618 0.971925 0.890768 0.834289 0.89682 0.990598 0.884461 0.815671 0.99057 0.80313 1.00927 0.909518 1.01568 0.909276 0.797037 0.90299 1.01567 0.896836 0.753018 1.03416 0.959558 0.953102 1.02192 1.0033 1.02798 1.03444 0.946851 1.04696 1.02795 1.02171 1.04705 0.965541 1.04076 1.05309 1.06585 1.05957 1.09702 1.05947 1.09695 0.965849 1.07172 1.04055 1.09076 1.04668 1.10336 1.03461 1.09664 1.05302 1.07821 0.959413 1.04685 1.07163 1.06564 1.07821 0.934459 1.05917 1.08442 1.05333 1.07209 1.08434 0.934601 0.959477 0.947098 0.996707 1.0717 0.927918 0.978138 1.06582 0.953101 0.971647 1.10318 0.965439 0.940781 1.09074 1.10328 0.990819 1.10934 0.934458 1.00935 1.09086 0.978299 1.07825 1.02807 0.977896 1.08439 1.02173 0.996857 1.0406 0.98432 1.06542 1.03439 1.09039 0.984294 1.03449 0.990477 1.0593 1.04704 0.965627 1.07199 0.96584 0.971842 0.996858 1.04671 0.97183 0.984487 1.05306 0.984602 0.977897 1.03423 1.00303 0.978038 1.04664 1.04059 0.978246 1.00333 0.927877 1.02168 1.04676 0.921935 0.990389 0.921664 1.05324 1.02789 0.959167 1.04698 1.0154 0.947101 1.02818 0.990431 0.940846 1.02209 1.05934 1.05317 0.934189 1.04081 1.04068 1.05296 1.06565 1.05915 1.03452 0.928351 1.05306 1.05918 1.05917 0.815496 1.06587 0.921694 1.07164 1.08423 1.04055 1.07823 0.809367 0.915523 1.06576 1.02809 1.08446 0.934176 0.821773 1.0033 1.05914 1.06564 0.928101 1.02799 1.07185 1.07197 0.953113 1.07809 1.07835 0.996906 0.959299 1.08444 1.09061 1.09066 1.10294 0.940405 0.984168 0.947117 0.984262 0.965682 1.09668 1.10303 0.803141 0.96582 1.09676 0.959127 0.809318 1.0967 0.940492 0.815457 1.07197 0.809503 0.80324 0.934383 0.815624 1.09066 0.815594 0.921945 0.834482 1.07807 0.915601 1.08424 0.847034 0.952974 1.05333 0.934378 0.809592 1.07806 0.947025 1.0596 0.828257 1.06581 0.822111 1.10333 0.821852 1.08439 0.80955 1.0907 0.840398 0.828109 1.10915 0.83418 0.846686 1.09682 0.822076 1.07194 1.0783 0.82198 0.865621 1.07208 0.815501 0.872106 0.890613 0.915381 0.903115 0.853373 0.897033 0.946984 0.971762 0.959354 0.971903 0.965852 0.959503 0.902993 0.859139 0.928272 0.890566 0.821724 0.946954 0.921785 1.05308 0.827977 0.934591 0.79044 1.05953 0.828116 0.965529 0.834367 1.06585 0.953118 0.840681 1.0468 0.940465 0.846703 1.04665 0.853192 0.946769 1.03438 0.85914 0.984289 1.05305 0.865709 1.04071 0.85962 0.828116 1.02171 0.834453 1.00923 1.01557 0.84706 0.997091 0.834462 0.996981 0.840382 0.834619 0.984247 0.853031 0.990536 0.859375 0.865551 0.846629 0.978215 0.859433 0.884606 1.02826 0.871628 1.04684 1.03448 0.872054 1.02173 1.00954 0.878211 0.777895 1.0408 0.890862 1.00295 1.02176 0.815505 0.809319 0.978126 0.821974 0.853225 1.00914 0.821659 0.871871 0.990751 0.815439 0.909399 0.971892 0.834342 0.853137 0.840711 0.915798 0.934483 0.840537 0.802976 0.884619 0.853272 0.928222 0.796839 0.828164 0.959469 0.890846 0.821676 1.00316 0.940669 0.81542 0.809208 0.953196 0.959517 0.815531 0.978274 0.953271 0.834142 0.815498 0.971986 0.828116 0.909172 0.809166 0.98414 0.840788 0.87803 0.971976 0.847036 0.915398 0.877889 0.847023 0.884287 0.890391 0.859325 0.92196 0.884586 0.853222 0.896875 0.822009 0.89074 0.878272 0.853265 0.828331 0.965436 0.865409 0.865653 0.822016 0.94047 0.859354 0.928116 0.840448 0.847094 0.909356 0.997109 0.827975 0.846821 0.977911 0.934603 0.828027 0.840836 0.946735 0.83446 0.959507 0.85919 0.934282 0.815437 0.965551 0.85292 0.897053 0.822074 0.934212 0.859271 0.81558 0.946878 0.865602 0.90936 0.965816 0.877969 0.884326 0.984429 0.827903 0.871899 0.90312 1.02205 0.890772 1.01585 0.809422 0.871672 0.884407 0.990732 0.822008 0.884437 0.89679 0.903184 0.853217 0.765855 0.834228 0.978334 0.909514 0.872025 0.809436 1.00947 0.865526 1.04077 0.809212 1.01559 0.90309 0.878045 0.878316 1.05332 0.878267 1.04699 0.884433 1.06542 0.909537 1.03428 0.803007 0.909549 0.990843 0.771835 0.896708 1.00932 0.921742 0.996766 0.909471 0.990765 0.871907 1.00309 0.928339 0.877913 1.02821 0.922061 1.04062 1.02212 0.846761 1.04062 1.02208 1.05961 1.05956 1.07797 1.08416 0.971974 0.915689 1.07195 1.08433 0.947022 1.09065 1.09685 1.09701 1.1031 0.9405 1.09073 1.1032 1.10916 0.92807 1.07209 0.915669 1.08418 0.865598 1.07837 0.865537 0.921756 1.07795 0.896805 1.07812 0.946702 0.909215 1.07182 1.0971 0.934502 1.09055 0.959204 1.08434 0.940485 1.09052 0.921845 0.996695 0.953263 1.01574 0.909199 0.990638 0.896649 1.0031 0.89057 0.978029 0.902894 0.896863 0.997095 0.903115 0.884549 1.02826 1.03456 1.03454 1.04704 0.859236 1.01539 1.04085 1.05304 0.996725 1.00288 1.0095 0.971934 0.853065 0.803067 0.990752 0.878322 1.00918 0.821906 1.01581 1.04054 0.828177 1.03444 1.19062 1.19674 0.834135 1.0344 1.1846 1.19068 1.19705 1.18416 1.02814 1.18459 1.17203 1.17833 1.17793 1.05309 0.834226 1.17831 1.19084 1.07189 1.1969 1.19711 0.821803 1.1908 1.19065 1.1906 1.06571 1.18423 0.840552 1.18429 1.19039 1.18462 1.18448 0.828307 1.17814 1.18452 1.07813 1.17813 1.17799 0.827922 1.19039 1.17176 1.06571 1.17815 0.828081 1.18422 1.17832 1.06565 1.18435 1.18423 1.18437 1.17833 1.17803 0.834245 1.17816 1.07822 1.18439 0.84045 1.18427 1.08423 1.17834 1.17165 0.8342 1.17817 1.10294 1.17814 1.19081 0.840682 1.19668 1.19665 1.09705 1.19665 0.846662 1.1904 1.08413 1.19069 0.834345 1.17811 1.18459 1.09692 1.19087 0.821698 1.19071 1.05946 1.1782 0.846685 1.19694 1.05916 0.847105 1.19702 1.18443 1.0655 1.19046 0.847027 1.19663 1.19712 1.05325 1.19702 1.18423 0.853036 1.18443 1.05962 1.19042 0.853271 1.18417 1.0845 1.19055 0.853088 1.19049 1.09055 1.19056 0.847014 1.19084 1.19065 1.09055 1.18456 1.19052 0.853165 1.06546 1.16541 1.16559 0.85941 1.19074 1.10311 1.15941 0.85931 1.09663 1.0779 1.07201 1.08461 1.19687 0.865482 1.07177 1.1844 1.09076 1.18459 1.09691 1.15926 0.871636 1.09046 1.19669 1.10328 1.09688 0.828268 1.09664 1.13413 1.10917 1.18425 1.07822 1.17208 0.834211 1.08448 1.09079 1.14038 1.09676 0.828259 1.0904 1.14706 1.10305 1.1658 1.10305 0.822043 1.10302 1.09681 1.11547 1.1096 1.10939 1.15917 0.84073 1.11547 1.17168 1.11555 1.1156 0.853266 1.10938 1.16583 1.15955 1.12176 1.15919 1.12207 1.15947 0.846709 1.14705 0.85289 1.15292 1.153 1.12803 1.1345 0.840811 1.17181 1.1283 1.15324 1.12804 1.14071 1.12799 1.14046 1.13437 0.840854 1.11587 1.12168 1.12827 1.12836 1.14063 1.12174 1.14683 0.865386 1.11578 1.1219 1.13433 0.840625 0.846796 1.13456 1.11551 1.14056 0.847099 1.14078 1.12837 0.853133 1.14667 0.859223 1.09056 1.12166 1.0967 1.13444 0.859364 0.846921 1.10927 1.10944 0.834556 1.12804 0.853124 1.13455 1.14045 0.859158 1.12186 0.846627 0.840737 1.10305 0.821724 1.12791 0.83424 1.10942 0.834578 0.809292 1.10301 0.840619 0.840739 1.10327 0.815756 0.865536 1.12193 0.865529 0.853244 1.09062 0.859186 1.0842 0.871717 1.11573 0.871952 0.865575 0.859582 1.10295 0.847028 1.10933 0.834484 1.10302 0.852951 1.11538 0.88436 1.0906 1.12185 1.1094 0.847106 1.10949 1.1155 0.871792 1.12195 1.09038 0.809379 1.11586 1.122 1.12203 1.09694 0.865757 1.09666 1.07188 1.1093 1.10295 0.859382 1.10949 0.82187 1.10332 1.09681 1.12201 0.871942 1.1282 0.802955 1.06586 1.13447 1.12813 1.12805 0.878337 1.08457 1.12202 0.884257 1.14054 1.12816 1.07828 1.1343 1.13448 1.13459 0.890835 1.14042 1.13422 1.12801 0.890599 1.14071 1.12186 1.13442 1.14692 1.15317 1.14053 1.14703 1.15302 1.12164 1.13437 1.1407 1.14671 1.12198 1.13417 0.828227 1.15315 1.09693 1.15314 1.14698 0.828152 1.15304 1.15957 1.10916 1.16567 0.815661 1.15925 0.771903 1.1342 1.13419 1.14071 1.10918 1.14066 0.81584 0.765694 1.13436 0.834532 1.09039 1.14051 1.14082 1.14704 0.840638 1.14671 1.1407 1.14689 0.821816 1.14059 1.12794 1.1471 0.822012 1.14038 1.11546 1.14688 1.15307 1.15307 1.13423 1.14682 1.15942 1.14687 1.10334 1.14676 1.15294 1.15334 1.10293 1.1467 0.809615 0.777987 1.15308 1.0843 1.14062 1.14062 1.14702 1.14707 1.07835 1.14687 1.14673 0.797 0.878024 1.06562 1.15325 1.14697 1.15297 1.07168 0.902965 1.15288 1.15325 1.15314 1.15926 0.884361 1.11587 0.803173 1.15926 1.15945 1.15334 1.1529 0.909569 1.15913 1.09689 1.15959 0.790421 0.884397 1.0782 1.15944 1.1469 1.15961 1.08452 1.15305 0.890842 1.15931 1.16565 0.809598 1.15297 1.0783 1.15333 1.14702 0.865685 1.15924 0.834479 1.15295 1.06555 1.15322 0.859232 1.16561 0.821836 1.16572 1.07192 1.16571 1.17183 0.859484 1.16583 1.15929 0.815552 1.06567 0.852886 1.15927 1.15956 0.878285 1.17211 0.797086 1.16547 1.05321 1.15939 1.14711 0.872011 0.790636 1.15937 1.15944 1.05958 1.16566 1.15958 0.865508 1.15301 0.802995 1.16556 1.04688 1.1656 0.865691 1.15923 0.827882 1.05301 1.16555 0.896809 1.16582 1.07209 1.16541 1.15931 0.809162 1.17187 0.915653 1.16542 1.16542 1.07176 1.16562 1.17196 1.16562 0.82175 1.17168 1.17173 0.890717 1.05328 1.17176 1.17198 0.828128 1.06561 1.17794 1.11567 1.11579 0.928312 0.765396 1.1155 1.02791 1.11553 1.13413 0.922105 1.12184 1.14062 1.05933 1.12816 0.877903 1.12799 1.0533 1.12164 0.871985 1.13449 0.703292 1.04044 1.09704 1.10947 0.903194 1.11541 1.0406 1.10958 0.88413 1.10306 1.10922 1.04706 1.11566 0.884424 1.12191 1.12811 1.13452 0.878333 1.03449 1.12173 1.12796 1.14046 0.846995 1.14687 1.04046 1.14706 0.740587 0.840485 1.19693 1.15293 1.19696 1.14076 0.828292 1.19706 1.14673 1.1971 1.15943 1.19041 0.759577 1.19053 1.15915 0.846728 1.16587 1.19081 1.15929 1.19075 0.85