# vtk DataFile Version 3.0
vtk output
ASCII
DATASET UNSTRUCTURED_GRID
POINTS 44488 float
0.00764341 0.0132191 0
0.0134721 0 0
0.0193454 0 0
0.0183566 0.0159259 0
0.0123736 0.0172347 0
0.00764341 0.0132191 0
0 0 0
0.0134721 0 0
0.00764341 0.0132191 0
0 0.0135064 0
0 0 0
0.0183566 0.0159259 0
0.0193454 0 0
0.0232712 0 0
0.0300477 0.0119678 0
0.0281564 0.015541 0
0.0219149 0.0175612 0
0.0183566 0.0159259 0
0.0232712 0 0
0.039961 0 0
0.0387979 0.00957407 0
0.0300477 0.0119678 0
0.0232712 0 0
0 0.0135064 0
0.00764341 0.0132191 0
0.0123736 0.0172347 0
0.0103418 0.0262626 0
0 0.0261884 0
0 0.0135064 0
0.46777 0.906956 0
0.465717 0.899534 0
0.471555 0.893855 0
0.482352 0.90051 0
0.481983 0.905126 0
0.47654 0.90973 0
0.46777 0.906956 0
0 0.0261884 0
0.0103418 0.0262626 0
0.0131458 0.0299653 0
0.00724809 0.0392925 0
0 0.0398981 0
0 0.0261884 0
0.444586 0.399963 0
0.450262 0.401266 0
0.452936 0.405403 0
0.447173 0.41595 0
0.439633 0.413047 0
0.438375 0.404417 0
0.444586 0.399963 0
0.488602 0.894278 0
0.498096 0.902454 0
0.496332 0.909695 0
0.492791 0.911739 0
0.481983 0.905126 0
0.482352 0.90051 0
0.488602 0.894278 0
0.840262 0.435464 0
0.842622 0.431977 0
0.849906 0.431789 0
0.854865 0.439524 0
0.851026 0.445841 0
0.842551 0.445335 0
0.840262 0.435464 0
0.452936 0.405403 0
0.45974 0.406793 0
0.462614 0.414954 0
0.455064 0.421247 0
0.448317 0.418376 0
0.447173 0.41595 0
0.452936 0.405403 0
0.0103418 0.0262626 0
0.0123736 0.0172347 0
0.0183566 0.0159259 0
0.0219149 0.0175612 0
0.0214882 0.0298989 0
0.0198483 0.0310602 0
0.0131458 0.0299653 0
0.0103418 0.0262626 0
0.488862 0.891786 0
0.495757 0.886122 0
0.503494 0.889142 0
0.505041 0.898272 0
0.498096 0.902454 0
0.488602 0.894278 0
0.488862 0.891786 0
0.849906 0.431789 0
0.854762 0.424826 0
0.861164 0.425589 0
0.865051 0.432458 0
0.862173 0.43876 0
0.854865 0.439524 0
0.849906 0.431789 0
0.43354 0.417119 0
0.439633 0.413047 0
0.447173 0.41595 0
0.448317 0.418376 0
0.441454 0.429039 0
0.433852 0.425577 0
0.43354 0.417119 0
0.0214882 0.0298989 0
0.0219149 0.0175612 0
0.0281564 0.015541 0
0.0351164 0.024711 0
0.0293091 0.0301098 0
0.0214882 0.0298989 0
0.444898 0.900396 0
0.451677 0.902629 0
0.453105 0.909536 0
0.446124 0.917405 0
0.441971 0.917564 0
0.438526 0.903809 0
0.444898 0.900396 0
0.0387979 0.00957407 0
0.039961 0 0
0.0514401 0 0
0.0521061 0.00793421 0
0.0435587 0.0137825 0
0.0387979 0.00957407 0
0.451677 0.902629 0
0.458957 0.89732 0
0.465717 0.899534 0
0.46777 0.906956 0
0.462675 0.912941 0
0.453105 0.909536 0
0.451677 0.902629 0
0.0514401 0 0
0.0664579 0 0
0.062887 0.0114533 0
0.0593592 0.0126111 0
0.0521061 0.00793421 0
0.0514401 0 0
0.453105 0.909536 0
0.462675 0.912941 0
0.46372 0.920327 0
0.45503 0.925559 0
0.446124 0.917405 0
0.453105 0.909536 0
0.0437173 0.0154363 0
0.0435587 0.0137825 0
0.0521061 0.00793421 0
0.0593592 0.0126111 0
0.0560221 0.0217177 0
0.0530607 0.0233272 0
0.0437173 0.0154363 0
0.0364978 0.024694 0
0.0437173 0.0154363 0
0.0530607 0.0233272 0
0.051624 0.0275528 0
0.0427437 0.0304997 0
0.0364978 0.024694 0
0.439346 0.928669 0
0.441182 0.918254 0
0.441971 0.917564 0
0.446124 0.917405 0
0.45503 0.925559 0
0.454352 0.930059 0
0.447 0.933847 0
0.439346 0.928669 0
0.0281564 0.015541 0
0.0300477 0.0119678 0
0.0387979 0.00957407 0
0.0435587 0.0137825 0
0.0437173 0.0154363 0
0.0364978 0.024694 0
0.0351164 0.024711 0
0.0281564 0.015541 0
0.45503 0.925559 0
0.46372 0.920327 0
0.468443 0.922826 0
0.469805 0.932203 0
0.46147 0.937318 0
0.454352 0.930059 0
0.45503 0.925559 0
0.0563879 0.0358071 0
0.051624 0.0275528 0
0.0530607 0.0233272 0
0.0560221 0.0217177 0
0.06715 0.0269687 0
0.0643081 0.0341247 0
0.0563879 0.0358071 0
0.47654 0.90973 0
0.481983 0.905126 0
0.492791 0.911739 0
0.490661 0.917903 0
0.481807 0.921158 0
0.477714 0.918703 0
0.47654 0.90973 0
0 0.0398981 0
0.00724809 0.0392925 0
0.0140448 0.0462333 0
0.0140487 0.0495798 0
0.0111913 0.0522204 0
0 0.050256 0
0 0.0398981 0
0.462675 0.912941 0
0.46777 0.906956 0
0.47654 0.90973 0
0.477714 0.918703 0
0.468443 0.922826 0
0.46372 0.920327 0
0.462675 0.912941 0
0.0198483 0.0310602 0
0.0208691 0.0401907 0
0.0140448 0.0462333 0
0.00724809 0.0392925 0
0.0131458 0.0299653 0
0.0198483 0.0310602 0
0.0198483 0.0310602 0
0.0214882 0.0298989 0
0.0293091 0.0301098 0
0.0337963 0.0398607 0
0.0289564 0.0444272 0
0.0208691 0.0401907 0
0.0198483 0.0310602 0
0.492791 0.911739 0
0.496332 0.909695 0
0.505476 0.91409 0
0.505751 0.922679 0
0.503223 0.925257 0
0.496726 0.925101 0
0.490661 0.917903 0
0.492791 0.911739 0
0.448317 0.418376 0
0.455064 0.421247 0
0.457547 0.428742 0
0.451793 0.434253 0
0.442063 0.430511 0
0.441454 0.429039 0
0.448317 0.418376 0
0.0140448 0.0462333 0
0.0208691 0.0401907 0
0.0289564 0.0444272 0
0.0290482 0.0505608 0
0.0226037 0.0542021 0
0.0140487 0.0495798 0
0.0140448 0.0462333 0
0.862173 0.43876 0
0.865051 0.432458 0
0.873795 0.431692 0
0.878058 0.436241 0
0.87416 0.444116 0
0.866893 0.445654 0
0.862173 0.43876 0
0 0.050256 0
0.0111913 0.0522204 0
0.0105921 0.063215 0
0.00897415 0.0643784 0
0 0.0642584 0
0 0.050256 0
0.477714 0.918703 0
0.481807 0.921158 0
0.4821 0.932297 0
0.477511 0.935488 0
0.469805 0.932203 0
0.468443 0.922826 0
0.477714 0.918703 0
0.455064 0.421247 0
0.462614 0.414954 0
0.468666 0.416998 0
0.469604 0.426032 0
0.463398 0.430299 0
0.457547 0.428742 0
0.455064 0.421247 0
0.0105921 0.063215 0
0.0111913 0.0522204 0
0.0140487 0.0495798 0
0.0226037 0.0542021 0
0.0219764 0.0632726 0
0.0192963 0.0646649 0
0.0105921 0.063215 0
0.854865 0.439524 0
0.862173 0.43876 0
0.866893 0.445654 0
0.864937 0.45018 0
0.85428 0.45283 0
0.851026 0.445841 0
0.854865 0.439524 0
0.496726 0.925101 0
0.503223 0.925257 0
0.506777 0.9378 0
0.493486 0.940525 0
0.490369 0.93474 0
0.496726 0.925101 0
0.031437 0.0667705 0
0.0307962 0.0671679 0
0.0219764 0.0632726 0
0.0226037 0.0542021 0
0.0290482 0.0505608 0
0.0341775 0.0537554 0
0.031437 0.0667705 0
0.465272 0.401764 0
0.472901 0.403637 0
0.474087 0.413296 0
0.468666 0.416998 0
0.462614 0.414954 0
0.45974 0.406793 0
0.465272 0.401764 0
0.838324 0.45013 0
0.842551 0.445335 0
0.851026 0.445841 0
0.85428 0.45283 0
0.853346 0.45527 0
0.8457 0.459041 0
0.838204 0.453482 0
0.838324 0.45013 0
0.490661 0.917903 0
0.496726 0.925101 0
0.490369 0.93474 0
0.4821 0.932297 0
0.481807 0.921158 0
0.490661 0.917903 0
0.0289564 0.0444272 0
0.0337963 0.0398607 0
0.0401169 0.0399508 0
0.0414311 0.052631 0
0.0341775 0.0537554 0
0.0290482 0.0505608 0
0.0289564 0.0444272 0
0.472901 0.403637 0
0.47731 0.400071 0
0.485609 0.402595 0
0.487241 0.409543 0
0.480404 0.415238 0
0.474087 0.413296 0
0.472901 0.403637 0
0.0415635 0.0388321 0
0.0427437 0.0304997 0
0.051624 0.0275528 0
0.0563879 0.0358071 0
0.0537135 0.0414264 0
0.0415635 0.0388321 0
0.866893 0.445654 0
0.87416 0.444116 0
0.880042 0.450998 0
0.875584 0.459021 0
0.869013 0.458751 0
0.864937 0.45018 0
0.866893 0.445654 0
0.386033 0.928363 0
0.393219 0.941217 0
0.385593 0.945489 0
0.37771 0.942614 0
0.377217 0.93394 0
0.386033 0.928363 0
0.480404 0.415238 0
0.487241 0.409543 0
0.49341 0.412079 0
0.49488 0.4197 0
0.488124 0.425494 0
0.482859 0.423935 0
0.480404 0.415238 0
0.0293091 0.0301098 0
0.0351164 0.024711 0
0.0364978 0.024694 0
0.0427437 0.0304997 0
0.0415635 0.0388321 0
0.0401169 0.0399508 0
0.0337963 0.0398607 0
0.0293091 0.0301098 0
0.85428 0.45283 0
0.864937 0.45018 0
0.869013 0.458751 0
0.863845 0.465636 0
0.860373 0.46595 0
0.853346 0.45527 0
0.85428 0.45283 0
0.372449 0.946486 0
0.37771 0.942614 0
0.385593 0.945489 0
0.386163 0.95631 0
0.377205 0.959423 0
0.374734 0.958258 0
0.372449 0.946486 0
0.49093 0.396825 0
0.499467 0.399399 0
0.499832 0.407484 0
0.49341 0.412079 0
0.487241 0.409543 0
0.485609 0.402595 0
0.49093 0.396825 0
0.403402 0.93508 0
0.410002 0.938796 0
0.409412 0.948491 0
0.399695 0.951461 0
0.394042 0.941378 0
0.403402 0.93508 0
0.818417 0.460266 0
0.823333 0.455371 0
0.832511 0.458255 0
0.832633 0.46775 0
0.83055 0.469805 0
0.82268 0.469566 0
0.818417 0.460266 0
0.0401169 0.0399508 0
0.0415635 0.0388321 0
0.0537135 0.0414264 0
0.0539828 0.0423156 0
0.0492604 0.0523757 0
0.0418613 0.052856 0
0.0414311 0.052631 0
0.0401169 0.0399508 0
0.393219 0.941217 0
0.394042 0.941378 0
0.399695 0.951461 0
0.397742 0.956264 0
0.391228 0.958596 0
0.386163 0.95631 0
0.385593 0.945489 0
0.393219 0.941217 0
0.808051 0.465342 0
0.813345 0.459823 0
0.818417 0.460266 0
0.82268 0.469566 0
0.818411 0.474524 0
0.809825 0.473752 0
0.808051 0.465342 0
0.468666 0.416998 0
0.474087 0.413296 0
0.480404 0.415238 0
0.482859 0.423935 0
0.476511 0.428718 0
0.469604 0.426032 0
0.468666 0.416998 0
0.0537135 0.0414264 0
0.0563879 0.0358071 0
0.0643081 0.0341247 0
0.0704729 0.0414717 0
0.0702753 0.0425754 0
0.0640453 0.0477744 0
0.0539828 0.0423156 0
0.0537135 0.0414264 0
0.386163 0.95631 0
0.391228 0.958596 0
0.390669 0.969808 0
0.382986 0.972629 0
0.379672 0.971141 0
0.377205 0.959423 0
0.386163 0.95631 0
0.832633 0.46775 0
0.843845 0.468662 0
0.843067 0.480483 0
0.841123 0.481954 0
0.832377 0.480375 0
0.83055 0.469805 0
0.832633 0.46775 0
0.488124 0.425494 0
0.49488 0.4197 0
0.502054 0.422611 0
0.502835 0.430928 0
0.496105 0.43524 0
0.491269 0.433544 0
0.488124 0.425494 0
0.031437 0.0667705 0
0.0341775 0.0537554 0
0.0414311 0.052631 0
0.0418613 0.052856 0
0.0438651 0.0677112 0
0.031437 0.0667705 0
0.405103 0.964122 0
0.404078 0.969983 0
0.396705 0.972882 0
0.390669 0.969808 0
0.391228 0.958596 0
0.397742 0.956264 0
0.405103 0.964122 0
0.832511 0.458255 0
0.838204 0.453482 0
0.8457 0.459041 0
0.844737 0.467913 0
0.843845 0.468662 0
0.832633 0.46775 0
0.832511 0.458255 0
0.477606 0.437003 0
0.476511 0.428718 0
0.482859 0.423935 0
0.488124 0.425494 0
0.491269 0.433544 0
0.483402 0.43971 0
0.477606 0.437003 0
0.0418613 0.052856 0
0.0492604 0.0523757 0
0.0546064 0.0580026 0
0.0545527 0.0617837 0
0.0453289 0.0687835 0
0.0438651 0.0677112 0
0.0418613 0.052856 0
0.42375 0.941388 0
0.422367 0.950084 0
0.414647 0.952723 0
0.409412 0.948491 0
0.410002 0.938796 0
0.415751 0.936373 0
0.42375 0.941388 0
0.807008 0.477029 0
0.809825 0.473752 0
[...]
CELL_DATA 6400
FIELD FieldData 3
weight 1 6400 float
 0.0488706 0.0488063 0.04894 0.0490131 0.0488377 0.0550337 0.0488832 0.0539151 0.0550232 0.0529896 0.0539957 0.0489293 0.0551157 0.0528559 0.054054 0.0490244 0.0549499 0.0491237 0.0549863 0.0492429 0.0548714 0.0492172 0.0491844 0.0547615 0.0490764 0.0547393 0.0493264 0.0549089 0.0489576 0.0548884 0.0489806 0.0490791 0.0548559 0.0541366 0.0490774 0.0528458 0.0490099 0.0547603 0.0541059 0.0490833 0.0530005 0.0547111 0.0491878 0.0539599 0.053129 0.0547743 0.0491932 0.0539499 0.0492565 0.052996 0.054623 0.0540695 0.0491409 0.0531192 0.054496 0.0539161 0.0545743 0.0533641 0.0492828 0.0545049 0.0534738 0.0541013 0.049394 0.0543667 0.0534235 0.054178 0.0492884 0.0543679 0.0532889 0.054226 0.0493556 0.0545717 0.0536052 0.0493993 0.0540838 0.0545563 0.0535072 0.0544577 0.0540842 0.0494807 0.0542049 0.0544108 0.0493374 0.053645 0.0493452 0.0542085 0.0544435 0.0494246 0.0535636 0.0542601 0.0495131 0.0543059 0.0533712 0.0495146 0.0542408 0.0541126 0.0542607 0.0532361 0.0494425 0.0542516 0.0541562 0.0494289 0.0541633 0.0532831 0.0541754 0.0495409 0.0542601 0.0495952 0.0541648 0.0531445 0.0543585 0.0496671 0.0542853 0.0543192 0.0497656 0.053501 0.0541682 0.0543448 0.0497602 0.0541718 0.0534156 0.0543873 0.0496792 0.0541883 0.0544344 0.0496791 0.0546361 0.0533045 0.0496078 0.054414 0.05203 0.0546568 0.0543408 0.0498495 0.0520163 0.054527 0.0544219 0.0497661 0.0545065 0.0518715 0.0544665 0.0495422 0.0545252 0.0521911 0.0496316 0.0545262 0.0543977 0.0519617 0.0495089 0.0545281 0.0546232 0.0521138 0.049688 0.0545788 0.0496562 0.0546211 0.0517972 0.0544696 0.049791 0.0544123 0.0517802 0.049749 0.0545233 0.0544866 0.051714 0.0498787 0.0545872 0.0545196 0.0519357 0.0498027 0.0543869 0.0521005 0.0546356 0.0542801 0.0499566 0.0520737 0.0543059 0.0546901 0.0498526 0.0519135 0.0542884 0.0491395 0.0546412 0.0523009 0.0541831 0.0490773 0.0541968 0.0542548 0.0524763 0.0542033 0.0493235 0.0542533 0.0522518 0.0543587 0.0543769 0.0492064 0.0524099 0.0491515 0.0544716 0.0542876 0.0491983 0.0526679 0.0543581 0.0543741 0.0492441 0.054372 0.0525614 0.0541884 0.0493615 0.0544905 0.0522652 0.0542705 0.0494399 0.0543542 0.0522212 0.0541939 0.0493295 0.0542362 0.0520877 0.0494534 0.0524395 0.0543283 0.0548219 0.0494312 0.0523654 0.054483 0.0495552 0.0548726 0.0495469 0.052278 0.054908 0.0492735 0.0544324 0.0516096 0.0492721 0.054996 0.0544546 0.0493647 0.0515978 0.0549604 0.0545545 0.0516939 0.0494615 0.0548219 0.0493216 0.0545788 0.051803 0.0493835 0.05479 0.0519551 0.0545865 0.0494984 0.0548512 0.0518613 0.0546699 0.0549431 0.0494873 0.0549039 0.0547527 0.0517544 0.0548856 0.0496143 0.0496479 0.0495645 0.0495881 0.0496854 0.0497178 0.0546688 0.0550726 0.0515068 0.0547152 0.055078 0.0496041 0.0550368 0.0514048 0.0545747 0.0495665 0.0551175 0.0515559 0.04975 0.0514444 0.0545473 0.0551493 0.0496666 0.051668 0.0551489 0.0496785 0.0517157 0.054656 0.0549932 0.0498112 0.0515986 0.0550264 0.0497607 0.054687 0.05497 0.0520168 0.0498521 0.0551042 0.0521556 0.0500209 0.0547691 0.0551139 0.0519102 0.049915 0.0511255 0.0550474 0.0520578 0.0498792 0.0510899 0.0547344 0.0523133 0.0510955 0.0500789 0.0548162 0.0521795 0.051119 0.0499546 0.0518435 0.0547587 0.0511494 0.0497581 0.0518739 0.0511583 0.0517593 0.0497693 0.0546687 0.0511404 0.0521568 0.0549063 0.0498758 0.0511121 0.0519982 0.0548265 0.0510978 0.0519128 0.0498112 0.0548424 0.051077 0.0520437 0.0499547 0.054683 0.0510976 0.0527235 0.0498559 0.0511312 0.0546014 0.0499421 0.0511476 0.0528508 0.0547742 0.0511449 0.0526061 0.0500479 0.0547798 0.0511301 0.0500047 0.0527538 0.051163 0.0546955 0.0501126 0.0530055 0.054981 0.0511834 0.0549075 0.0528824 0.0500803 0.0511785 0.0549239 0.0525004 0.0511864 0.0499831 0.0550803 0.0511994 0.052657 0.05506 0.0501439 0.0512002 0.0525386 0.055006 0.0498416 0.051182 0.0549991 0.04992 0.0528803 0.0511733 0.0548503 0.050006 0.0527921 0.0511639 0.0499978 0.0549348 0.0526727 0.0499331 0.0511643 0.0548637 0.0511822 0.0499329 0.0550132 0.0531369 0.0511904 0.0498488 0.0549476 0.0530059 0.0511825 0.0500174 0.0552585 0.05315 0.0510508 0.0500781 0.0510791 0.0551909 0.0500778 0.0532584 0.0501588 0.0552277 0.0510352 0.0501608 0.0510333 0.0553247 0.050092 0.0511215 0.0552747 0.0532931 0.0501617 0.0511197 0.0553017 0.0502547 0.0530357 0.0511014 0.0552597 0.0499589 0.0510784 0.0551802 0.0529487 0.0501018 0.0510067 0.055194 0.0510215 0.0500291 0.0528191 0.0553255 0.0509774 0.0500685 0.0552722 0.0531828 0.0509794 0.0499799 0.0510581 0.0553635 0.0530937 0.0500811 0.0510593 0.0553986 0.0501384 0.0529672 0.0510232 0.0553434 0.050174 0.0511391 0.0524214 0.0554229 0.0503332 0.0511253 0.0524377 0.0502623 0.0511303 0.0554363 0.0502444 0.0522982 0.0511538 0.0502292 0.0555124 0.0527011 0.0511685 0.0502923 0.0525565 0.0511471 0.0554851 0.0501989 0.0510881 0.0524683 0.0554805 0.0503559 0.0510773 0.0526091 0.0502333 0.0553951 0.0510463 0.0523223 0.0503711 0.0553783 0.051076 0.0503057 0.0521948 0.0553127 0.0502328 0.0511293 0.052228 0.0554475 0.0511038 0.0503242 0.0520768 0.0511044 0.0503135 0.0553742 0.0523424 0.0503974 0.0554358 0.0510804 0.0524799 0.0503829 0.0551659 0.0523851 0.0551427 0.0504481 0.0550822 0.0512051 0.055152 0.052849 0.0505214 0.0552227 0.0504503 0.0512089 0.0527516 0.0552602 0.0504459 0.0512148 0.0552137 0.0526219 0.0505779 0.0512176 0.0550888 0.0529996 0.0512245 0.050511 0.0550209 0.0512135 0.05034 0.0530384 0.051209 0.0550465 0.0504192 0.0528635 0.0551017 0.051207 0.0504069 0.0551696 0.0526186 0.0504963 0.0511872 0.0551177 0.0524754 0.0512036 0.0504148 0.0553138 0.0525199 0.0511965 0.05049 0.0552723 0.0527343 0.0512253 0.0505503 0.0553134 0.0512122 0.0528424 0.0505505 0.0512005 0.0554237 0.0527167 0.0504659 0.0512392 0.0526462 0.0553513 0.0505269 0.0553651 0.0512311 0.0528761 0.0505972 0.0551825 0.0512257 0.0527497 0.050576 0.0552429 0.0530076 0.05126 0.0552139 0.0528705 0.0506764 0.0529656 0.0552773 0.0512443 0.0506196 0.0530066 0.0512584 0.0552296 0.0500466 0.0531541 0.0512412 0.0552995 0.0501394 0.0512305 0.0530024 0.0501679 0.051215 0.0546148 0.0531122 0.050119 0.0512514 0.0545452 0.0502273 0.053136 0.0512348 0.0545664 0.05022 0.0532452 0.0512429 0.05034 0.0532491 0.0544693 0.0512241 0.0502697 0.0546387 0.0532407 0.0511691 0.0503817 0.0511762 0.0547052 0.0533674 0.0504495 0.0511556 0.0547266 0.0532145 0.050316 0.0511916 0.054653 0.0531154 0.0503906 0.0511897 0.054489 0.0530583 0.0504648 0.0511724 0.0544386 0.0532715 0.0511239 0.0501779 0.0531438 0.0545768 0.0503653 0.0510948 0.0532917 0.0545351 0.0511497 0.0503175 0.0533987 0.0511492 0.0547934 0.0502754 0.0533587 0.0511232 0.0548086 0.0502951 0.0534685 0.0547395 0.0511241 0.0533642 0.050247 0.0548962 0.0512057 0.0535328 0.0512051 0.0548749 0.0502069 0.0534391 0.0511946 0.0548252 0.0503765 0.0512086 0.0546638 0.0504015 0.0535821 0.0546241 0.0512339 0.0504268 0.0548249 0.0504886 0.051225 0.0531316 0.0547512 0.051218 0.0505035 0.0532552 0.0547043 0.0511612 0.0504414 0.0511743 0.0547118 0.0532539 0.0505673 0.0511667 0.0543745 0.0505084 0.0533989 0.0511362 0.0504362 0.054303 0.0533828 0.0511884 0.050493 0.0544606 0.0505661 0.0511952 0.0534632 0.0543868 0.050532 0.0544622 0.053365 0.0511769 0.0506372 0.0509462 0.0541958 0.0505824 0.0535065 0.05094 0.0506128 0.0542197 0.0509029 0.0535734 0.0509045 0.0506407 0.0534877 0.0540996 0.0509953 0.0507014 0.0536314 0.0509944 0.0541828 0.0506772 0.0534772 0.0509591 0.0543054 0.0506988 0.0509458 0.0535716 0.0508631 0.0543913 0.0507384 0.0535137 0.0508721 0.050759 0.0535732 0.0506048 0.0542745 0.0508063 0.0536415 0.0505465 0.0509061 0.0542592 0.0536726 0.050651 0.0508676 0.0545391 0.0537542 0.0506713 0.0508381 0.0545446 0.0536791 0.0506221 0.0510337 0.0544709 0.053749 0.0506965 0.0510249 0.0546274 0.0536935 0.0509964 0.0507381 0.0546307 0.0537549 0.0509986 0.0507138 0.0545625 0.0510416 0.0538608 0.0543551 0.0507603 0.0537923 0.051064 0.0544234 0.0510158 0.053843 0.0509544 0.0532694 0.0543419 0.0507935 0.0509121 0.0532172 0.0545061 0.0508928 0.0507709 0.0533549 0.0544166 0.0509763 0.0534771 0.0508166 0.0509352 0.0545034 0.0533235 0.0509017 0.0533952 0.0549829 0.0508295 0.0535046 0.050951 0.0494385 0.0549604 0.0507186 0.0535455 0.0494198 0.0507508 0.0549038 0.0536715 0.049546 0.0507945 0.0550494 0.0536411 0.0495391 0.0506664 0.0549706 0.0495165 0.0507098 0.0535886 0.0548879 0.0496234 0.0508389 0.0547861 0.0536323 0.0496267 0.0507904 0.0537041 0.0547887 0.0496136 0.054952 0.0507684 0.053778 0.0496736 0.0506272 0.0535189 0.054861 0.0533688 0.0506547 0.0548665 0.0497854 0.0534546 0.0505128 0.0497479 0.0535796 0.0551523 0.0505672 0.0533974 0.0497058 0.050717 0.055105 0.0498075 0.0536699 0.0506715 0.0550291 0.0498599 0.0536419 0.0506044 0.0496034 0.055171 0.0535502 0.0505962 0.0496984 0.0550965 0.0537145 0.0508371 0.0497193 0.0537929 0.0508073 0.0551625 0.049795 0.0537493 0.0550221 0.0497064 0.0509191 0.0549438 0.0498681 0.0508705 0.0538244 0.0549258 0.0497841 0.0508087 0.0537126 0.0550049 0.0498142 0.0538087 0.0508667 0.0550887 0.0499065 0.0537539 0.0507427 0.0549876 0.053849 0.0507519 0.0499771 0.0539022 0.0550675 0.0506903 0.0499234 0.0539246 0.054704 0.0507032 0.0500916 0.0538442 0.0547726 0.0506302 0.0500052 0.0546523 0.0539936 0.0507646 0.0546461 0.049827 0.0539262 0.0508279 0.0548325 0.0499399 0.053963 0.0547261 0.0507056 0.0499238 0.0547111 0.0540632 0.0510841 0.0500303 0.0545781 0.0539946 0.0510695 0.0499067 0.0545826 0.0538672 0.0510345 0.0500195 0.0538728 0.0545121 0.0510526 0.0540129 0.0501333 0.0546448 0.0511016 0.0539348 0.0501398 0.051084 0.05458 0.0539141 0.0500353 0.0547931 0.0510094 0.0539437 0.054891 0.0509977 0.0501937 0.0539916 0.0547769 0.050966 0.0501121 0.054025 0.0510511 0.0549538 0.0501992 0.054038 0.0510162 0.0502395 0.0549141 0.0502941 0.0509919 0.0548617 0.054108 0.049981 0.0509671 0.054709 0.0541508 0.0500858 0.0511076 0.054641 0.0502012 0.0540821 0.0511413 0.0548284 0.0500736 0.0540807 0.0511017 0.0547617 0.0501786 0.0541565 0.0546963 0.0511625 0.0502703 0.0511279 0.0542118 0.0501726 0.0547425 0.0511427 0.0503314 0.0535886 0.0511129 0.0555782 0.0502469 0.0510736 0.0534766 0.0555488 0.050389 0.0510548 0.0503078 0.0510353 0.0555578 0.0536077 0.0504386 0.0510898 0.0556423 0.0535688 0.050404 0.0556151 0.0510645 0.0556276 0.0536885 0.0554986 0.0498213 0.0510506 0.0555214 0.0536874 0.0509378 0.0498735 0.0554903 0.0537882 0.0509234 0.0499544 0.05559 0.0508913 0.0537056 0.0556111 0.0499714 0.0509489 0.0499445 0.0537546 0.0508896 0.0555541 0.0509174 0.0537845 0.0499166 0.0555528 0.0508341 0.0538642 0.0501129 0.0557128 0.0500232 0.0507322 0.0539116 0.0556826 0.0557041 0.0508007 0.0500033 0.0538388 0.0507697 0.0500835 0.0538531 0.0557876 0.0508902 0.0537759 0.0557504 0.0501722 0.0508567 0.05387 0.0558095 0.050054 0.050826 0.0557724 0.0501264 0.0556635 0.0507616 0.0539388 0.0556763 0.0501939 0.0510021 0.0539367 0.0556841 0.0509624 0.0500409 0.0556204 0.0540308 0.0500705 0.0509324 0.0557911 0.053973 0.0501295 0.0510204 0.0557315 0.053954 0.0501851 0.0509718 0.0557515 0.0540315 0.0501506 0.0557427 0.0509978 0.0539466 0.0502456 0.0554808 0.0508927 0.0540485 0.050215 0.0554204 0.0541202 0.0508408 0.0502165 0.0554441 0.0541203 0.0509291 0.0502504 0.0555552 0.0538591 0.050863 0.0555016 0.0503475 0.0539866 0.0509266 0.0555086 0.0503231 0.0553681 0.0512768 0.0538985 0.0503329 0.0552976 0.0540586 0.0512994 0.0504371 0.0553726 0.0539653 0.0512732 0.0540966 0.0554424 0.0502752 0.0554388 0.0540625 0.0502717 0.0513207 0.0553707 0.0503641 0.051319 0.0556199 0.0539554 0.0502826 0.0512949 0.0555763 0.0555718 0.0503731 0.0540382 0.0512619 0.0556961 0.0512878 0.0504672 0.0556378 0.0541077 0.0556403 0.0512594 0.0503725 0.0541724 0.0555159 0.0513181 0.0504816 0.054143 0.0512862 0.0555157 0.050514 0.051318 0.0554524 0.0542163 0.0512889 0.0541344 0.0505874 0.0514097 0.0540274 0.0504567 0.0541592 0.0513743 0.0506656 0.051353 0.0542072 0.0505577 0.0513516 0.05423 0.050384 0.0542377 0.0514401 0.0503693 0.0542443 0.0514095 0.0504693 0.0514665 0.0504644 0.0513516 0.0505623 0.0513617 0.05558 0.0514525 0.0505491 0.0555864 0.0513975 0.0514206 0.0505435 0.0558679 0.0512589 0.0506423 0.055843 0.0512593 0.0558321 0.0512364 0.0506827 0.0512907 0.0559048 0.050631 0.0512972 0.0558946 0.0512646 0.0507366 0.0559212 0.0512376 0.0557998 0.0507502 0.0558487 0.0512221 0.0502901 0.0558107 0.0543129 0.0511923 0.0559042 0.0504218 0.0512705 0.0558692 0.054301 0.0503402 0.0558556 0.0512673 0.0543113 0.0503406 0.0559474 0.0512216 0.054377 0.0503792 0.0513719 0.0559752 0.0543964 0.0504478 0.0513265 0.0559316 0.050475 0.0513149 0.054067 0.0559516 0.0513286 0.0559789 0.054019 0.0505914 0.0514262 0.0540988 0.0559887 0.0506235 0.0514185 0.0559405 0.0541388 0.0505374 0.0514206 0.0559202 0.0541687 0.0513687 0.0504987 0.0559135 0.0542109 0.0513084 0.0505618 0.0559664 0.0541111 0.0513612 0.0505907 0.0559676 0.0541634 0.050641 0.0513088 0.0559429 0.0541929 0.0504284 0.0514122 0.054242 0.0557598 0.050527 0.0513537 0.0542117 0.0557033 0.0505403 0.054289 0.0558181 0.0513949 0.0504862 0.0557663 0.0543208 0.0515051 0.055711 0.0542032 0.0505532 0.0556606 0.0505873 0.0515335 0.0541334 0.0556505 0.0506131 0.0557163 0.0515911 0.0542609 0.0507257 0.0557714 0.050677 0.0541969 0.0557286 0.0516488 0.0506723 0.054267 0.05588 0.0507134 0.0516131 0.0543242 0.0558262 0.0507687 0.0514948 0.0558323 0.0543385 0.0558757 0.0515305 0.0506522 0.0542805 0.0506684 0.0543644 0.055911 0.0514923 0.0507314 0.0559171 0.0543988 0.0516125 0.0507718 0.0558767 0.0557809 0.0544206 0.0506999 0.0516306 0.0507496 0.0557765 0.0542891 0.051567 0.0507969 0.0542796 0.0558414 0.0517556 0.0507976 0.0558352 0.0543232 0.0543953 0.0508572 0.0516837 0.0558119 0.0543508 0.0508352 0.0516993 0.0553006 0.0544271 0.0509008 0.0543897 0.0552384 0.051861 0.0552303 0.0509285 0.0544677 0.0507759 0.0553721 0.0518695 0.0544692 0.0508872 0.0553005 0.0518632 0.0544681 0.0508239 0.0551554 0.0544766 0.0517799 0.050885 0.0551324 0.0508064 0.051775 0.0545596 0.0550551 0.0509292 0.0552176 0.0544496 0.0516848 0.0508517 0.0552847 0.054377 0.0517102 0.055197 0.0508608 0.0545028 0.0551223 0.0517717 0.0509171 0.0544527 0.0554404 0.0509841 0.051874 0.0554405 0.0545193 0.0509662 0.0553681 0.0518766 0.0545745 0.0553598 0.0509397 0.0515522 0.0545412 0.0555156 0.0509657 0.0514813 0.0546118 0.0555164 0.0514813 0.0510573 0.0554402 0.0545588 0.0516236 0.05528 0.0510146 0.0515445 0.0546508 0.0552129 0.0515473 0.0506162 0.0553606 0.054715 0.0516209 0.0507131 0.0552946 0.0535255 0.0514761 0.0553746 0.050659 0.0534057 0.0515321 0.0536275 0.0514648 0.0550144 0.0507006 0.0534192 0.0549815 0.0516178 0.0508113 0.053423 0.0550735 0.050781 0.0535563 0.0516132 0.0551446 0.0507511 0.0537177 0.0515343 0.0550564 0.0508448 0.0538196 0.0516995 0.0548897 0.0507843 0.0537631 0.051794 0.053866 0.0548234 0.0508449 0.0517082 0.0537246 0.0548814 0.05091 0.0538396 0.0550164 0.0518939 0.0509194 0.0539167 0.0549463 0.0517955 0.0535578 0.0510035 0.0549544 0.0534297 0.0518029 0.0508372 0.0548699 0.053546 0.0517056 0.0536954 0.0552176 0.0507648 0.0535456 0.0551444 0.0516095 0.0508796 0.0534128 0.0553024 0.0534072 0.0509433 0.0517006 0.0551681 0.0537093 0.0509006 0.0552242 0.0517988 0.0536802 0.0550188 0.0508747 0.0538033 0.0517873 0.055088 0.05396 0.0539087 0.0511857 0.0549298 0.0509914 0.0538164 0.0511767 0.0550963 0.0509837 0.0539228 0.0511465 0.0550897 0.0511001 0.0512147 0.0540397 0.0550121 0.0510106 0.0511842 0.0539648 0.0510784 0.0555877 0.0511458 0.0541182 0.0555876 0.0510422 0.0540557 0.0510973 0.0555141 0.053999 0.0511715 0.0511086 0.0556584 0.0541407 0.0509299 0.0511705 0.0556637 0.0540886 0.0511448 0.0509694 0.055589 0.0541702 0.0512827 0.0554346 0.0510139 0.0542525 0.0512599 0.0510513 0.0553972 0.051234 0.0542023 0.0555698 0.0510145 0.0542235 0.0513409 0.0555203 0.0542908 0.0511669 0.0513252 0.0554822 0.0540129 0.0554757 0.0511159 0.0513127 0.0541137 0.0557209 0.05127 0.0540965 0.0510583 0.0512495 0.055759 0.0540205 0.0512168 0.0557051 0.0511663 0.0541712 0.0556385 0.0511961 0.0542685 0.05109 0.0511626 0.0556798 0.0541886 0.0512943 0.0511017 0.0543299 0.0512329 0.0557815 0.0542175 0.0511976 0.0543043 0.0512706 0.0557314 0.0511456 0.054373 0.0510475 0.0557413 0.0512241 0.051014 0.053524 0.0556204 0.0510994 0.0510657 0.0555499 0.0533958 0.0511933 0.0511166 0.0555404 0.0536689 0.0510294 0.0533748 0.0556642 0.0512759 0.0510857 0.0536897 0.0556029 0.0511836 0.0535318 0.0509789 0.0553278 0.0512935 0.0552521 0.050982 0.053837 0.0512434 0.055332 0.053804 0.0554043 0.0508806 0.0513349 0.053956 0.0554149 0.0509407 0.0553371 0.0538386 0.0512817 0.0552603 0.0510397 0.053948 0.0551778 0.0510022 0.0513808 0.0539327 0.0551793 0.0533517 0.0509611 0.0514008 0.0533689 0.0552657 0.0511362 0.0536767 0.0510945 0.0551948 0.0514351 0.0536645 0.0511643 0.0554673 0.05056 0.0535241 0.0511986 0.055424 0.0505076 0.0533517 0.0506231 0.051224 0.0535077 0.0555071 0.0511272 0.0506419 0.0536489 0.0555721 0.0511904 0.0505829 0.0538024 0.0554846 0.0510963 0.0506136 0.0538166 0.0554127 0.0510668 0.0506562 0.0539315 0.0553578 0.05067 0.0510307 0.0507017 0.0552917 0.0511601 0.0537957 0.0507131 0.0507439 0.0539363 0.0510606 0.0552867 0.0507042 0.0540806 0.0511359 0.0554609 0.0540268 0.050826 0.0514556 0.0541579 0.0507913 0.0553684 0.0507606 0.0540441 0.0513884 0.0541331 0.0507795 0.0514442 0.0540719 0.0542217 0.0506482 0.0513754 0.0542623 0.0507352 0.0539962 0.0515244 0.0542622 0.0506856 0.0540741 0.0515149 0.0507149 0.0544152 0.051433 0.0543394 0.0507139 0.0539588 0.0513641 0.0543233 0.0507389 0.0541534 0.0513425 0.0544272 0.0506634 0.0541609 0.0513612 0.054381 0.0507955 0.0514976 0.0540558 0.0539039 0.0507677 0.0514221 0.0541485 0.0540216 0.0507679 0.0514368 0.0542526 0.0508217 0.0538292 0.0515985 0.050863 0.0540541 0.0539164 0.0508287 0.051686 0.0541589 0.0540969 0.0508008 0.0515909 0.0542863 0.0540019 0.0508885 0.0543533 0.053987 0.0517837 0.0508639 0.0544585 0.0542598 0.0508164 0.0516942 0.0507876 0.0542497 0.0508574 0.0516915 0.0544208 0.0541774 0.0508641 0.0515972 0.0543763 0.0508392 0.0543387 0.0515118 0.0508761 0.0544901 0.0509019 0.0544175 0.0515149 0.0509483 0.0542732 0.0543437 0.0508886 0.0516866 0.0543717 0.0509101 0.0542482 0.0543253 0.0509798 0.0516769 0.0543292 0.0509304 0.0543885 0.0540804 0.0515973 0.0509671 0.0541671 0.0543196 0.0512987 0.0509586 0.0540824 0.0543603 0.0513446 0.0509959 0.0544423 0.0542516 0.0512281 0.0544236 0.05089 0.0541703 0.0512592 0.0509396 0.0544595 0.0509271 0.0513089 0.0544809 0.0509806 0.053747 0.0514252 0.0545345 0.0509436 0.051399 0.0537706 0.0545152 0.050968 0.0513796 0.053685 0.0545842 0.0509177 0.0512843 0.0538802 0.0544046 0.0509922 0.0545045 0.0512038 0.0510129 0.0538645 0.0544778 0.0510047 0.0537835 0.0511844 0.0544488 0.0510481 0.0545297 0.0536226 0.0513453 0.0545558 0.0510239 0.0512606 0.0535463 0.0545722 0.0510727 0.0538172 0.0546424 0.0510566 0.0512485 0.0537107 0.0546191 0.0507434 0.0514995 0.0537584 0.0547036 0.0507795 0.0536498 0.0546376 0.0515913 0.0508095 0.053964 0.0545708 0.0514745 0.0508302 0.053904 0.0545011 0.0539999 0.051572 0.0507695 0.0541503 0.0546372 0.0508797 0.0516697 0.0540641 0.0546381 0.0508531 0.0540904 0.0515476 0.0545713 0.0508453 0.0540213 0.0547188 0.0514401 0.0509337 0.0539533 0.0546409 0.0509111 0.0539179 0.0514221 0.050884 0.0547225 0.0538085 0.0513339 0.0509095 0.0546445 0.0508988 0.0538521 0.0515202 0.05095 0.0540411 0.0547859 0.051491 0.0508499 0.0539152 0.054723 0.0509386 0.0544151 0.0513996 0.0547953 0.0508939 0.0504588 0.0544993 0.0547117 0.0504654 0.0508735 0.0544002 0.0547194 0.0503985 0.0509091 0.0547899 0.0505318 0.0545661 0.0509743 0.0544826 0.0505336 0.0547758 0.0509322 0.0544676 0.0547946 0.0504824 0.050962 0.0543296 0.0504294 0.0547905 0.0503574 0.0543188 0.05101 0.0548621 0.0502951 0.0509758 0.0542492 0.0502223 0.0549239 0.0543953 0.0509995 0.0502373 0.0548727 0.0543726 0.0503 0.0510342 0.0548591 0.0504254 0.0546127 0.0509873 0.0549452 0.0503775 0.0509683 0.0545371 0.0503423 0.0550078 0.0510117 0.050281 0.0546641 0.0510274 0.0544889 0.0505546 0.0509847 0.0546464 0.0545529 0.0506348 0.0510123 0.0545831 0.0545915 0.0505024 0.0