# vtk DataFile Version 3.0
vtk output
ASCII
DATASET UNSTRUCTURED_GRID
POINTS 22969 float
0 0.886733 0
0.195447 1 0
0 1 0
0 0.886733 0
0 0.88405 0
0.164708 1 0
0 1 0
0 0.88405 0
0 0.941139 0
0.19392 1 0
0 1 0
0 0.941139 0
0 0 0
1 0 0
1 1 0
0 1 0
0 0 0
0 0 0
1 0 0
1 1 0
0 1 0
0 0 0
0 0.823319 0
0.225063 1 0
0 1 0
0 0.823319 0
0 0 0
1 0 0
1 1 0
0 1 0
0 0 0
0 0 0
1 0 0
1 1 0
0 1 0
0 0 0
0 0 0
1 0 0
1 1 0
0 1 0
0 0 0
0 0.863662 0
0.20277 1 0
0 1 0
0 0.863662 0
0 0 0
1 0 0
1 1 0
0 1 0
0 0 0
0 0 0
1 0 0
1 1 0
0 1 0
0 0 0
0 0 0
1 0 0
1 1 0
0 1 0
0 0 0
0 0.795461 0
0.263632 1 0
0 1 0
0 0.795461 0
0 0 0
1 0 0
1 1 0
0 1 0
0 0 0
0 0 0
1 0 0
1 1 0
0 1 0
0 0 0
0 0 0
1 0 0
1 1 0
0 1 0
0 0 0
0 0 0
1 0 0
1 1 0
0 1 0
0 0 0
0 0 0
1 0 0
1 1 0
0 1 0
0 0 0
0 0.910492 0
0.144909 1 0
0 1 0
0 0.910492 0
0 0 0
1 0 0
1 1 0
0 1 0
0 0 0
0 0 0
1 0 0
1 1 0
0 1 0
0 0 0
0 0 0
1 0 0
1 1 0
0 1 0
0 0 0
0 0 0
1 0 0
1 1 0
0 1 0
0 0 0
0 0 0
1 0 0
1 1 0
0 1 0
0 0 0
0 0 0
1 0 0
1 1 0
0 1 0
0 0 0
0 0 0
1 0 0
1 1 0
0 1 0
0 0 0
0 0.903987 0
0.190382 1 0
0 1 0
0 0.903987 0
0 0 0
1 0 0
1 1 0
0 1 0
0 0 0
0 0 0
1 0 0
1 1 0
0 1 0
0 0 0
0 0 0
1 0 0
1 1 0
0 1 0
0 0 0
0 0 0
1 0 0
1 1 0
0 1 0
0 0 0
0 0.889205 0
0.252853 1 0
0 1 0
0 0.889205 0
0 0 0
1 0 0
1 1 0
0 1 0
0 0 0
0 0.694783 0
0.523499 1 0
0 1 0
0 0.694783 0
0 0 0
1 0 0
1 1 0
0 1 0
0 0 0
0 0.600354 0
0.687742 1 0
0 1 0
0 0.600354 0
0 0 0
1 0 0
1 1 0
0 1 0
0 0 0
0 0 0
1 0 0
1 1 0
0 1 0
0 0 0
0 0.749884 0
0.446924 1 0
0 1 0
0 0.749884 0
0 0 0
1 0 0
1 1 0
0 1 0
0 0 0
0 0 0
1 0 0
1 1 0
0 1 0
0 0 0
0 0 0
1 0 0
1 1 0
0 1 0
0 0 0
0 0 0
1 0 0
1 1 0
0 1 0
0 0 0
0 0.86814 0
0.323141 1 0
0 1 0
0 0.86814 0
0 0 0
1 0 0
1 1 0
0 1 0
0 0 0
0 0 0
1 0 0
1 1 0
0 1 0
0 0 0
0 0 0
1 0 0
1 1 0
0 1 0
0 0 0
0 0.845597 0
0.223689 1 0
0 1 0
0 0.845597 0
0 0 0
1 0 0
1 1 0
0 1 0
0 0 0
0 0 0
1 0 0
1 1 0
0 1 0
0 0 0
0 0 0
1 0 0
1 1 0
0 1 0
0 0 0
0 0.868422 0
0.338841 1 0
0 1 0
0 0.868422 0
0 0 0
1 0 0
1 1 0
0 1 0
0 0 0
0 0.477716 0
0.695598 1 0
0 1 0
0 0.477716 0
0.770434 0 0
1 0 0
1 0.247171 0
0.770434 0 0
0 0.334689 0
0.790613 1 0
0 1 0
0 0.334689 0
0.8141 0 0
1 0 0
1 0.108743 0
0.8141 0 0
0 0.313059 0
0.787734 1 0
0 1 0
0 0.313059 0
0.985539 0 0
1 0 0
1 0.0327585 0
0.985539 0 0
0 0.657246 0
0.565552 1 0
0 1 0
0 0.657246 0
0 0.442933 0
0.369668 0.702509 0
0.77386 0.997079 0
0.777669 1 0
0 1 0
0 0.442933 0
0 0.673614 0
0.573155 1 0
0 1 0
0 0.673614 0
0 0.128403 0
0.921442 1 0
0 1 0
0 0.128403 0
0 0.954616 0
0.122287 0.904328 0
1 0.566705 0
1 1 0
0 1 0
0 0.954616 0
0 0 0
0.222966 0 0
0 0.0993759 0
0 0 0
0 0.717964 0
1 0.167887 0
1 1 0
0 1 0
0 0.717964 0
0 0 0
0.092658 0 0
0 0.0376548 0
0 0 0
0.826871 0 0
1 0 0
1 0.110319 0
0.826871 0 0
0.759546 0 0
1 0 0
1 1 0
0.359798 1 0
0.666388 0.220392 0
0.759546 0 0
0 0.888098 0
0.770603 0.612483 0
1 0.851615 0
1 1 0
0 1 0
0 0.888098 0
0.381769 0.806246 0
0.819204 0 0
1 0 0
1 1 0
0.281538 1 0
0.381769 0.806246 0
0 0.753722 0
1 0.310593 0
1 1 0
0 1 0
0 0.753722 0
0.199717 0 0
1 0 0
1 0.689662 0
0.297917 0.088715 0
0.199717 0 0
0 0.819431 0
0.163176 0.75785 0
1 0.458808 0
1 1 0
0 1 0
0 0.819431 0
0 0.751547 0
0.380885 1 0
0 1 0
0 0.751547 0
0.844277 0 0
1 0 0
1 0.0551989 0
0.844277 0 0
0.45656 0 0
1 0 0
1 1 0
0.903136 1 0
0.45656 0 0
0 0.665452 0
0.0975434 0.730873 0
0.462104 1 0
0 1 0
0 0.665452 0
0.622726 0 0
1 0 0
1 0.291519 0
0.715745 0.0745252 0
0.622726 0 0
0.846513 0 0
1 0 0
1 1 0
0.351139 1 0
0.846513 0 0
0 0.712813 0
0.459844 1 0
0 1 0
0 0.712813 0
0.652468 0 0
1 0 0
1 0.451968 0
0.652468 0 0
0.937068 0 0
1 0 0
1 0.0262995 0
0.937068 0 0
0 0 0
0.0370487 0 0
0 0.0184062 0
0 0 0
0 0.678226 0
0.0879429 0.733328 0
0.475367 1 0
0 1 0
0 0.678226 0
0.91317 0 0
1 0 0
1 0.193932 0
0.984136 0.160416 0
0.91317 0 0
0.753334 0 0
1 0 0
1 0.350191 0
0.753334 0 0
0 0 0
0.415275 0 0
0 0.232581 0
0 0 0
0 0.82728 0
0.351768 1 0
0 1 0
0 0.82728 0
0 0 0
0.452954 0 0
0.0207585 0.194974 0
0 0.20355 0
0 0 0
0.897758 0 0
1 0 0
1 0.838098 0
0.696371 0.606199 0
0.897758 0 0
0 0.925641 0
0.214929 1 0
0 1 0
0 0.925641 0
0.323149 0 0
1 0 0
1 0.7184 0
0.323149 0 0
0.584586 0 0
1 0 0
1 0.185102 0
0.584586 0 0
0 0.120206 0
1 0.986511 0
1 1 0
0 1 0
0 0.120206 0
0.70624 0 0
1 0 0
1 0.402376 0
0.806685 0.141773 0
0.70624 0 0
0.572948 0 0
1 0 0
1 0.261902 0
0.61864 0.0293876 0
0.572948 0 0
0 0.433132 0
0.397749 0.701994 0
0.788185 0.975646 0
0.821216 1 0
0 1 0
0 0.433132 0
0.697457 0 0
1 0 0
1 0.445658 0
0.697457 0 0
0.523377 0 0
1 0 0
1 0.230513 0
0.523377 0 0
0 0.794097 0
0.169574 0.732519 0
1 0.447084 0
1 1 0
0 1 0
0 0.794097 0
0.516598 0.312359 0
0.346039 0 0
1 0 0
1 1 0
0.908858 1 0
0.516598 0.312359 0
0 0.686809 0
0.661284 1 0
0 1 0
0 0.686809 0
0.360026 0 0
1 0 0
1 0.398546 0
0.360026 0 0
0.366144 0.766716 0
0.815604 0 0
1 0 0
1 1 0
0.235563 1 0
0.366144 0.766716 0
0 0.664588 0
0.107484 0.72833 0
0.524806 1 0
0 1 0
0 0.664588 0
0.3683 0 0
1 0 0
1 0.418363 0
0.3683 0 0
0.831326 0 0
1 0 0
1 1 0
0.499459 1 0
0.831326 0 0
0.511918 0 0
1 0 0
1 0.255303 0
0.511918 0 0
0 0.890935 0
0.828191 0.63806 0
1 0.804432 0
1 1 0
0 1 0
0 0.890935 0
0.865821 0 0
1 0 0
1 1 0
0.388322 1 0
0.865821 0 0
0 0.14631 0
1 0.951802 0
1 1 0
0 1 0
0 0.14631 0
0 0 0
1 0 0
1 1 0
0 1 0
0 0 0
0.578163 0 0
1 0 0
1 0.300982 0
0.762477 0.135792 0
0.578163 0 0
0 0 0
1 0 0
1 1 0
0 1 0
0 0 0
0 0 0
1 0 0
1 1 0
0 1 0
0 0 0
0.192224 0 0
1 0 0
1 1 0
0.796278 1 0
0.192224 0 0
0 0 0
1 0 0
1 1 0
0 1 0
0 0 0
0 0 0
1 0 0
1 1 0
0 1 0
0 0 0
0 0 0
1 0 0
1 1 0
0 1 0
0 0 0
0.674747 0 0
1 0 0
1 0.159581 0
0.674747 0 0
0 0 0
1 0 0
1 1 0
0 1 0
0 0 0
0.35734 0.744444 0
0.820849 0 0
1 0 0
1 1 0
0.205257 1 0
0.35734 0.744444 0
0 0 0
1 0 0
1 1 0
0 1 0
0 0 0
0 0 0
1 0 0
1 1 0
0 1 0
0 0 0
0 0 0
1 0 0
1 1 0
0 1 0
0 0 0
0.361838 0 0
1 0 0
1 0.713137 0
0.361838 0 0
0.84531 0 0
1 0 0
1 0.0604889 0
0.84531 0 0
0.956461 0 0
1 0 0
1 1 0
0.567785 1 0
0.956461 0 0
0.569308 0 0
1 0 0
1 0.208353 0
0.569308 0 0
1 0.397575 0
1 1 0
0.658179 1 0
0.688558 0.943966 0
1 0.397575 0
0.503425 0 0
1 0 0
1 0.290658 0
0.503425 0 0
0 0 0
1 0 0
1 1 0
0 1 0
0 0 0
0.656145 0 0
1 0 0
1 0.180717 0
0.656145 0 0
0 0 0
1 0 0
1 1 0
0 1 0
0 0 0
0.961114 0 0
1 0 0
1 1 0
0.550052 1 0
0.961114 0 0
0 0 0
1 0 0
1 1 0
0 1 0
0 0 0
0 0 0
1 0 0
1 1 0
0 1 0
0 0 0
0.346797 0 0
1 0 0
1 0.704534 0
0.612471 0.298138 0
0.346797 0 0
0 0 0
1 0 0
1 1 0
0 1 0
0 0 0
0 0 0
1 0 0
1 1 0
0 1 0
0 0 0
0 0 0
1 0 0
1 1 0
0 1 0
0 0 0
0.594146 0 0
1 0 0
1 0.515753 0
0.594146 0 0
0 0 0
1 0 0
1 1 0
0 1 0
0 0 0
0 0 0
1 0 0
1 1 0
0 1 0
0 0 0
0 0 0
1 0 0
1 1 0
0 1 0
0 0 0
0 0 0
1 0 0
1 1 0
0 1 0
0 0 0
0 0 0
1 0 0
1 1 0
0 1 0
0 0 0
0.744185 0 0
1 0 0
1 0.421086 0
0.744185 0 0
0 0 0
1 0 0
1 1 0
0 1 0
0 0 0
0 0 0
1 0 0
1 1 0
0 1 0
0 0 0
0 0 0
1 0 0
1 1 0
0 1 0
0 0 0
0.721768 0 0
1 0 0
1 0.218848 0
0.721768 0 0
0 0 0
1 0 0
1 1 0
0 1 0
0 0 0
0 0 0
1 0 0
1 1 0
0 1 0
0 0 0
0 0 0
1 0 0
1 1 0
0 1 0
0 0 0
0.847099 0 0
1 0 0
1 0.106207 0
0.847099 0 0
0 0 0
1 0 0
1 1 0
0 1 0
0 0 0
0 0 0
1 0 0
1 1 0
0 1 0
0 0 0
0 0 0
1 0 0
1 1 0
0 1 0
0 0 0
0 0 0
1 0 0
1 1 0
0 1 0
0 0 0
0 0 0
1 0 0
1 1 0
0 1 0
0 0 0
0 0 0
1 0 0
1 1 0
0 1 0
0 0 0
0 0 0
1 0 0
1 1 0
0 1 0
0 0 0
0.711532 0 0
1 0 0
1 0.418892 0
0.711532 0 0
0 0 0
1 0 0
1 1 0
0 1 0
0 0 0
0 0 0
1 0 0
1 1 0
0 1 0
0 0 0
0 0 0
1 0 0
1 1 0
0 1 0
0 0 0
0 0 0
1 0 0
1 1 0
0 1 0
0 0 0
0 0 0
1 0 0
1 1 0
0 1 0
0 0 0
0 0 0
1 0 0
1 1 0
0 1 0
0 0 0
0 0 0
1 0 0
1 1 0
0 1 0
0 0 0
0 0 0
1 0 0
1 1 0
0 1 0
0 0 0
0 0 0
1 0 0
1 1 0
0 1 0
0 0 0
0 0 0
1 0 0
1 1 0
0 1 0
0 0 0
0 0 0
1 0 0
1 1 0
0 1 0
0 0 0
0 0 0
1 0 0
1 1 0
0 1 0
0 0 0
0.955382 0 0
1 0 0
1 0.0597045 0
0.955382 0 0
0 0 0
1 0 0
1 1 0
0 1 0
0 0 0
0 0 0
1 0 0
1 1 0
0 1 0
0 0 0
0.894534 0 0
1 0 0
1 0.0739578 0
0.894534 0 0
0 0 0
1 0 0
1 1 0
0 1 0
0 0 0
0 0 0
1 0 0
1 1 0
0 1 0
0 0 0
0 0 0
1 0 0
1 1 0
0 1 0
0 0 0
0.817277 0 0
1 0 0
1 0.142592 0
0.817277 0 0
0 0 0
1 0 0
1 1 0
0 1 0
0 0 0
0 0 0
1 0 0
1 1 0
0 1 0
0 0 0
0.708296 0 0
1 0 0
1 0.118611 0
0.708296 0 0
0 0 0
1 0 0
1 1 0
0 1 0
0 0 0
0 0 0
1 0 0
1 1 0
0 1 0
0 0 0
0 0 0
1 0 0
1 1 0
0 1 0
0 0 0
0 0 0
1 0 0
1 1 0
0 1 0
0 0 0
0.736076 0 0
1 0 0
1 0.124047 0
0.736076 0 0
0 0 0
1 0 0
1 1 0
0 1 0
0 0 0
0 0 0
1 0 0
1 1 0
0 1 0
0 0 0
0 0 0
1 0 0
1 1 0
0 1 0
0 0 0
0 0 0
1 0 0
1 1 0
0 1 0
0 0 0
0.739506 0 0
1 0 0
1 0.115568 0
0.739506 0 0
0 0 0
1 0 0
1 1 0
0 1 0
0 0 0
0 0 0
1 0 0
1 1 0
0 1 0
0 0 0
0.628779 0 0
1 0 0
1 0.174096 0
0.628779 0 0
0 0 0
1 0 0
1 1 0
0 1 0
0 0 0
0 0 0
1 0 0
1 1 0
0 1 0
0 0 0
0.917515 0 0
1 0 0
1 0.180638 0
0.917515 0 0
0 0 0
1 0 0
1 1 0
0 1 0
0 0 0
0 0 0
1 0 0
1 1 0
0 1 0
0 0 0
0.449704 0 0
1 0 0
1 0.422132 0
0.595059 0.114901 0
0.449704 0 0
0 0 0
1 0 0
1 1 0
0 1 0
0 0 0
0 0 0
1 0 0
1 1 0
0 1 0
0 0 0
0.579367 0 0
1 0 0
1 0.251294 0
0.579367 0 0
0.999432 0 0
1 0 0
1 0.00115251 0
0.999432 0 0
0 0 0
1 0 0
1 1 0
0 1 0
0 0 0
0 0 0
1 0 0
1 1 0
0 1 0
0 0 0
0 0 0
1 0 0
1 1 0
0 1 0
0 0 0
0.518191 0 0
1 0 0
1 0.287313 0
0.518191 0 0
0 0 0
1 0 0
1 1 0
0 1 0
0 0 0
0 0 0
1 0 0
1 1 0
0 1 0
0 0 0
0.947262 0.814952 0
1 0.717966 0
1 1 0
0.850408 1 0
0.947262 0.814952 0
0 0 0
1 0 0
1 1 0
0 1 0
0 0 0
0.709298 0 0
1 0 0
1 0.151384 0
0.709298 0 0
0 0 0
1 0 0
1 1 0
0 1 0
0 0 0
0.89784 0 0
1 0 0
1 0.153389 0
0.89784 0 0
0 0 0
1 0 0
1 1 0
0 1 0
0 0 0
0.793016 0 0
1 0 0
1 0.117664 0
0.793016 0 0
0 0 0
1 0 0
1 1 0
0 1 0
0 0 0
0 0 0
1 0 0
1 1 0
0 1 0
0 0 0
0.784405 0 0
1 0 0
1 0.355224 0
0.874437 0.153092 0
0.784405 0 0
0 0 0
1 0 0
1 1 0
0 1 0
0 0 0
0.821102 0 0
1 0 0
1 0.0956326 0
0.821102 0 0
0 0 0
1 0 0
1 1 0
0 1 0
0 0 0
0 0 0
1 0 0
1 1 0
0 1 0
0 0 0
0.892083 0 0
1 0 0
1 0.149842 0
0.892083 0 0
0 0 0
1 0 0
1 1 0
0 1 0
0 0 0
0.744327 0 0
1 0 0
1 0.234808 0
0.744327 0 0
0 0 0
1 0 0
1 1 0
0 1 0
0 0 0
0 0 0
1 0 0
1 1 0
0 1 0
0 0 0
0 0 0
1 0 0
1 1 0
0 1 0
0 0 0
0.664071 0 0
1 0 0
1 0.159646 0
0.664071 0 0
0 0 0
1 0 0
1 1 0
0 1 0
0 0 0
0.948307 0.795671 0
1 0.706769 0
1 1 0
0.834047 1 0
0.948307 0.795671 0
0 0 0
1 0 0
1 1 0
0 1 0
0 0 0
0.646232 0 0
1 0 0
1 0.1831 0
0.646232 0 0
0 0 0
1 0 0
1 1 0
0 1 0
0 0 0
0 0 0
1 0 0
1 1 0
0 1 0
0 0 0
0 0 0
1 0 0
1 1 0
0 1 0
0 0 0
0.802925 0 0
1 0 0
1 0.121177 0
0.802925 0 0
0 0 0
1 0 0
1 1 0
0 1 0
0 0 0
[...]
CELL_DATA 4559
FIELD FieldData 3
weight 1 4559 float
 0.890781 0.878117 0.88433 1.15927 1.16542 0.871712 1.17184 1.17211 1.1718 0.89678 1.1779 1.17207 1.16581 0.890577 1.16572 1.1719 1.16576 1.17808 1.17211 0.878092 1.17806 1.17187 1.16562 1.17196 1.16574 1.17176 1.17199 0.896868 1.17168 1.16562 1.17794 1.17173 0.884431 1.17816 0.947089 1.17198 0.984515 1.17808 1.17209 0.909158 1.17169 1.17811 1.17809 1.17171 0.909511 1.17174 1.17824 1.17205 0.8782 1.17832 1.17834 1.18446 0.915504 1.17795 0.928039 0.802945 0.940473 0.803001 0.946819 0.828358 0.921735 0.940686 0.921823 0.934573 0.946706 0.815395 1.0406 0.80926 0.790874 0.921762 0.977934 0.909522 1.06556 0.897001 1.01583 0.890493 0.853313 0.947096 0.896887 0.834602 0.915715 0.92834 0.871695 0.840522 0.753136 0.902934 0.840491 0.853281 0.828007 0.909492 0.865786 0.896891 0.884205 0.890859 0.871664 1.00334 0.847001 0.853098 0.965695 0.865451 0.878357 1.05324 0.947123 0.953266 0.890539 0.934516 0.927993 0.890579 0.928209 0.884339 1.02199 0.940794 1.02209 1.1842 0.846897 1.19055 1.19689 0.972048 1.1906 1.1907 1.19073 0.859549 1.19068 0.946634 1.1908 1.19069 1.1905 0.878104 0.846726 0.897106 0.877938 0.84039 0.890494 1.17837 0.865399 1.19669 0.902914 1.19664 1.19071 0.871798 1.19062 1.19674 1.18448 0.859213 1.19668 1.19064 1.17797 1.18452 1.18459 0.853242 1.17173 1.17814 1.17803 0.82208 1.17175 1.19056 1.1657 0.815566 1.1655 1.15937 1.17797 1.1592 1.16566 1.172 1.16538 0.77164 1.16585 1.17196 1.16581 1.16542 1.17189 1.16557 1.1779 1.17203 1.17163 1.1717 1.18429 1.19068 0.778302 1.19705 1.19711 0.828253 1.19084 1.1969 1.1846 0.853101 1.17203 1.17793 0.878225 1.18416 1.17833 1.19081 1.19668 0.871703 1.19665 1.1904 1.19702 1.19065 0.871752 1.1906 1.18423 0.884185 1.19665 1.19046 0.834325 1.19069 1.19039 0.903197 1.17814 1.17207 0.897047 0.803338 1.17831 1.17813 1.18423 0.903274 1.18452 1.17813 0.790415 1.17803 0.878223 1.19039 0.809314 1.17179 0.86563 1.18429 1.17799 0.828054 1.17803 0.859236 1.18462 1.18459 0.778281 1.18448 0.846962 1.17833 1.17176 1.18437 0.89053 1.18422 0.790747 1.17816 0.897109 1.15937 1.15958 1.14704 0.85948 1.1592 0.771883 1.15326 1.15932 1.15948 0.903333 1.14699 1.15313 1.15328 1.15288 1.1467 0.934269 1.16552 1.15931 0.909127 1.15328 1.17206 1.15935 1.16576 1.15951 0.946922 1.15321 1.15924 1.15317 0.934166 1.14082 1.13446 0.927912 1.12184 1.14681 1.12827 1.1343 0.896845 1.1346 1.12189 1.10945 1.14058 1.12812 1.11563 1.14674 0.915702 1.15313 1.14046 1.14052 1.15309 0.909566 1.14671 1.14048 1.1281 1.12211 0.940425 1.13461 0.765544 1.128 1.10937 1.15934 1.16541 1.17805 1.16573 1.15328 0.802998 1.16554 1.14664 0.934149 1.16541 1.15946 1.15918 0.92201 1.18435 1.17193 1.17832 1.17815 0.940478 1.1717 0.834374 1.14663 0.96584 1.15322 1.17167 1.17168 1.16545 0.790584 1.16571 1.14668 1.14065 1.14045 0.972063 0.809562 1.15297 1.1406 1.14668 0.953003 1.13432 1.12179 1.11543 0.790616 1.1346 0.965436 1.12808 1.12825 1.15325 0.971951 1.1344 1.14699 1.15942 1.14712 1.14668 1.14076 0.759317 1.12791 0.978308 1.12205 1.1219 1.13458 1.12832 1.19712 0.977884 1.19694 1.19663 0.959325 0.778222 1.19693 1.19696 1.18443 0.946915 1.19071 1.19042 1.19041 1.19702 1.19053 0.965495 1.1971 1.19708 1.19706 0.840708 1.19669 0.953255 1.19707 1.19687 1.19071 0.796784 1.1907 0.953365 1.19045 1.18422 1.17811 0.809437 1.19087 0.915548 1.1782 1.19049 0.921658 1.18423 0.834279 1.18443 1.1844 0.909586 1.18439 1.19084 0.928295 0.853226 1.19065 1.19056 0.934521 1.19074 0.902963 1.19055 0.909501 1.19075 0.903002 1.18417 1.19081 0.840392 1.19669 1.19687 0.884405 1.19052 1.18456 1.15926 1.18459 0.928341 0.828309 1.18425 1.19686 1.19687 1.19701 0.915547 1.19678 0.859572 1.19053 0.921716 1.19666 1.19676 0.884264 1.19042 0.915603 1.09065 0.915527 1.17166 0.946691 1.19667 0.946872 1.19682 0.940854 1.19052 1.19686 1.17799 0.940532 1.11587 0.927998 1.14083 1.11569 0.940831 1.14707 1.08461 0.921731 1.16564 1.11539 1.15335 0.947077 1.19672 1.13413 1.15337 0.94072 1.18445 0.959413 1.14673 1.17208 1.14706 1.1658 0.953163 1.15917 1.12186 1.14038 1.12834 0.959576 1.12788 1.10936 1.19675 1.09051 1.10333 0.946983 0.952916 1.10295 1.1407 1.11546 0.940613 1.12794 1.13423 0.821843 0.953258 1.10293 1.17834 0.86566 1.18427 1.15955 0.853165 1.17817 1.17165 0.89087 1.17181 0.946926 1.16546 1.16583 0.909263 0.846685 1.15919 0.853036 1.15947 1.153 1.15292 1.17814 1.14071 1.15941 0.847105 1.16541 1.14046 1.15324 0.853271 1.14683 1.12827 1.1345 0.847027 1.14063 1.15918 1.15315 0.85941 1.12804 1.12817 1.14074 0.853088 1.12799 1.13421 1.12212 1.11541 1.14059 0.85931 1.11563 1.14705 0.865755 1.14045 1.13455 1.12791 1.10327 1.12193 0.878368 1.12204 1.12819 1.13428 0.865482 1.10942 1.11545 1.1219 0.872051 1.16559 1.13448 1.12166 1.15317 1.13459 1.12198 0.846755 1.11551 1.13444 1.11573 1.10944 1.11538 1.12185 1.12164 1.09693 1.10918 1.0783 0.903007 1.10916 1.11587 1.09689 1.09038 0.871893 1.0782 1.08457 1.10933 1.12186 1.10305 1.09062 1.10295 0.915676 1.07188 1.11572 0.953007 1.07822 1.10915 1.10301 0.947074 1.09067 0.940474 1.09682 1.06586 1.09681 1.09062 0.922028 1.07828 0.971878 0.84068 1.07179 1.05942 0.840761 1.0842 0.865503 1.07797 0.859204 1.08428 0.871738 1.08443 1.08421 0.865429 0.828353 1.05334 0.822089 1.10305 1.09709 1.09059 1.08417 0.77791 1.07187 0.871918 1.07803 1.06577 0.81576 1.07211 1.06547 1.05333 1.10334 1.1157 1.08425 1.10957 1.09671 0.853178 1.06539 1.05933 1.09043 1.06568 1.07194 1.05913 1.04686 1.04697 1.04667 1.05933 1.04058 1.0406 1.00323 0.80331 1.00922 0.859579 0.859211 1.00318 0.822122 0.996833 0.815673 0.978015 0.865566 0.965671 1.03461 0.840573 1.04087 0.846698 1.02799 0.87833 1.03458 0.903058 1.04042 1.04691 0.890446 0.927961 1.02792 0.909581 0.878292 0.896801 1.01573 0.915869 0.94706 0.903339 0.934162 0.996728 0.903108 0.990821 0.909342 0.971928 0.884504 1.0221 0.940694 0.8971 0.984157 0.884461 0.978144 0.965721 0.984554 0.878276 1.10939 0.977943 1.10326 1.10289 0.921831 0.9158 1.10941 1.12188 0.890784 1.09702 0.884263 1.1154 1.09692 0.909609 1.07792 0.921941 1.06553 1.09674 1.07791 0.934363 1.09062 0.927995 1.10307 1.11586 1.10916 0.928214 0.859586 1.11579 1.10915 1.10318 0.946667 0.928223 1.09669 1.1029 1.08449 0.890504 0.940618 1.09076 1.10336 0.934402 0.971753 1.07821 0.934332 0.89064 1.05302 0.928153 0.990592 1.02803 0.92201 1.05915 0.902945 0.915745 1.03439 0.959596 0.965494 1.06562 0.940441 1.01578 0.921643 0.93423 0.965765 0.98416 0.865543 1.00304 0.87189 1.02211 0.865434 0.997065 0.828109 0.859146 1.02195 0.83418 0.878348 1.00925 1.01577 1.08427 0.896825 1.05921 0.959208 0.890439 1.02791 0.884175 1.09058 1.00952 0.853361 1.05936 1.00317 1.02816 0.87829 1.02168 1.02811 1.02827 0.871783 1.04075 1.03451 1.04696 0.865789 1.05292 1.05957 1.00306 0.859185 0.840408 0.965813 0.915604 0.997017 0.840681 1.02192 0.98446 0.85962 0.902978 0.996692 0.846703 0.896751 0.990554 0.99083 0.928144 0.996856 0.915609 0.940873 0.890474 0.978001 0.884294 0.909388 1.0033 0.934613 0.896839 1.02798 1.05309 0.890624 0.834462 1.04705 0.853192 0.97175 1.03444 0.85914 0.959149 0.996631 1.04076 1.05917 1.07821 0.865709 1.05937 0.953131 1.0904 0.84706 0.98428 1.08448 0.859433 0.884237 1.05947 0.990718 1.09676 1.10305 0.871628 1.10949 0.884552 1.0967 0.996991 0.853221 1.1094 1.10927 0.865678 1.08442 0.878288 1.06564 1.09056 0.859139 1.08423 0.909432 1.00333 0.871924 1.08446 1.0906 1.10302 0.871858 0.89081 1.1093 1.09666 1.00337 1.10295 0.878318 1.12201 1.10332 0.872058 1.00937 0.822024 1.0032 0.890538 0.99047 1.01549 0.997086 0.965558 0.87818 1.02795 0.94665 0.972058 0.884138 1.02171 0.940849 0.965748 0.884398 0.959501 1.00962 1.00937 0.902928 1.00937 0.884377 0.953341 1.00337 1.04668 0.878342 1.03454 1.05302 0.896972 1.07209 1.02187 0.928339 1.02192 1.02788 0.884606 1.04079 0.934133 1.04685 0.890835 1.02824 0.91566 1.04055 1.01556 0.903218 1.06587 1.01569 0.890852 0.859344 0.996785 1.02198 0.897078 1.00962 0.90945 0.921996 1.02192 1.02825 0.902904 1.03456 1.02837 0.896899 0.921932 0.978139 1.01568 0.921653 0.903046 0.971849 0.897111 1.03416 0.865607 0.965717 1.00303 0.978243 0.815491 1.03461 0.984323 0.840382 1.06565 0.803333 0.965581 0.853031 1.05918 0.865551 0.771741 0.959551 1.05296 0.890862 1.06564 0.959413 0.784348 0.878211 0.977937 0.872054 1.07835 0.790486 1.07164 0.978254 0.896891 1.09061 1.06576 0.884407 1.07823 0.984251 0.784303 1.10294 0.834619 0.971909 1.09694 1.10949 0.828257 1.11553 0.996746 1.11567 0.846821 1.1031 1.1155 1.08444 1.09701 1.00326 0.840836 1.09685 0.990496 1.07809 0.85292 1.09066 0.759429 1.1032 1.01546 1.10916 1.10947 0.877969 1.09704 1.02803 1.10958 1.10922 0.85919 1.02211 0.890772 0.89679 0.865602 0.903184 0.909514 0.903024 0.909209 0.909232 0.903024 0.915845 0.915823 0.915481 0.909304 0.934318 0.940412 0.927894 0.997105 0.99057 0.778103 0.997049 0.921759 1.0092 0.947092 1.02179 0.959135 1.01565 1.03431 1.04059 0.934245 1.04688 0.834403 1.06543 0.853021 1.05931 0.928089 1.05326 1.05325 1.03441 0.82825 1.0407 0.940789 1.0404 0.846843 1.04683 0.921706 1.04703 0.765581 1.05956 1.06545 1.06572 0.934468 1.06557 1.07169 0.821626 1.08449 0.840803 0.928339 1.0719 1.07797 1.05954 0.846747 0.940405 1.06539 1.07796 1.07181 0.928327 1.07185 0.815422 0.977954 1.07815 1.02797 0.965789 1.03413 0.865466 1.04073 0.946768 0.965434 1.02196 1.05321 0.965721 1.02799 1.04067 0.953341 0.978223 0.859143 1.04059 0.959315 0.853041 1.02824 0.978321 0.909349 1.02171 1.04708 0.959615 0.896831 1.03449 0.921693 1.07835 0.846866 1.05939 1.07163 1.06568 0.940684 0.872017 1.08447 0.871642 1.08446 1.05337 0.934213 1.05326 1.04682 0.877998 0.953298 1.04074 1.05949 1.07808 0.896655 1.05932 0.984352 0.9344 1.00927 0.953079 0.88454 0.946886 0.959197 0.865533 0.984405 0.971664 0.952929 1.01567 0.972014 0.946717 0.971947 0.965746 0.928048 0.871671 0.959159 0.99066 0.85289 0.903252 0.971828 0.946719 0.915407 0.953158 0.859605 0.934524 0.947062 0.871629 0.890399 0.859269 0.915613 0.965743 0.877929 0.890817 0.959558 0.928219 0.878123 0.972118 0.978055 0.809148 0.984416 0.797108 0.984194 0.99057 1.00325 0.796847 0.940638 0.990598 1.01538 0.840512 1.00303 1.00935 0.790414 0.990563 0.972114 0.965849 0.965541 0.959413 0.790453 0.990459 0.865498 0.865725 0.978299 0.853139 0.977896 0.853162 0.940855 0.84075 0.871727 0.940721 0.884198 0.928339 0.815403 0.853209 0.928188 0.828179 0.947098 0.828128 0.846717 0.946851 0.859512 0.852993 0.934601 0.865707 0.921825 0.884159 0.915722 0.847099 0.902942 0.853266 0.909292 0.871942 0.884484 0.922072 0.865386 0.859223 0.915425 0.922036 0.865757 1.10922 1.10328 0.90927 0.88436 0.928323 1.12174 0.953102 1.11553 0.878041 0.859364 0.953101 1.10934 0.915704 1.10303 1.09664 0.934459 0.878337 1.09695 0.940479 0.859382 0.971842 0.959508 1.08434 0.871926 0.978246 0.984276 1.09074 0.890835 0.965627 0.971925 0.884257 1.08439 0.940781 0.896779 1.07163 1.09066 0.927918 1.10919 1.09668 0.959215 0.921935 0.890599 1.08439 1.0967 0.978138 0.865575 0.97183 1.09676 0.971647 0.871636 0.909521 0.934458 1.09039 0.871792 0.953245 1.0717 1.0095 0.88445 0.934231 0.921928 1.07825 1.01566 0.903123 0.878234 1.09086 0.896651 1.01576 0.896841 1.07199 0.921916 0.878109 1.02809 0.946968 1.05301 1.02163 0.890564 0.984487 0.996989 0.959477 0.896688 0.996857 1.07199 0.965439 1.00924 0.915476 0.952994 1.04672 0.903129 0.96584 0.996814 1.05298 0.921933 1.04081 1.05322 1.00312 0.909332 1.04709 1.02207 1.02173 0.884549 1.03432 0.98433 1.05915 0.877927 1.03428 1.0221 0.884464 1.05303 1.04704 0.971844 1.04682 0.865446 1.01574 1.0406 1.03416 0.890833 1.04038 0.896674 1.05914 1.01587 1.00957 0.902882 1.00934 1.00925 0.877936 1.05306 0.890737 1.05333 1.07197 1.02822 0.90314 1.04706 1.08416 0.915735 1.04075 1.04667 1.07185 0.903197 1.03452 1.06582 0.896861 0.98432 1.07797 1.05306 0.909518 1.05324 0.984294 0.915813 1.03432 1.03439 0.984602 0.927918 1.02194 0.996707 0.990676 0.921631 1.01555 1.04698 1.00328 0.92791 1.00933 0.990477 0.909434 1.02807 1.0405 0.921715 0.978038 1.04676 0.9281 1.01586 1.10333 1.03449 0.947101 0.92167 1.0907 1.05956 0.959167 1.07197 0.94074 1.05332 0.98421 0.934564 1.07194 1.07195 0.990809 1.07806 1.06542 0.946754 1.0783 1.05317 0.965682 1.08424 0.959299 1.08433 1.09073 1.0596 1.00955 1.09055 1.0593 1.00953 1.09065 1.0971 1.00943 1.09052 1.10306 1.08434 1.00336 1.10303 1.07807 1.10294 1.11561 1.04076 0.834342 1.06581 1.08418 1.01555 1.05333 1.07182 1.02169 1.06553 1.07837 1.01561 1.05953 0.996739 1.07209 1.07208 1.00292 0.815417 1.07812 1.06585 0.990607 0.85916 1.05947 1.07189 1.00308 0.847045 1.0529 0.996889 1.08413 0.877997 1.02173 1.08423 1.09692 0.87163 0.996962 1.05308 1.07813 1.09055 0.871718 1.04665 1.09705 0.86569 1.05305 1.00333 1.04684 0.822027 0.990819 1.02826 0.853002 1.02209 1.05934 1.02818 0.828321 1.06542 1.04664 0.871746 1.02205 1.0468 0.877958 0.996858 1.04068 1.01585 1.05917 0.877946 1.04671 0.88417 1.02212 0.990813 1.04077 0.996645 1.03428 1.04062 1.00333 1.01559 1.04059 0.82801 1.04699 1.00924 1.05961 1.03438 1.00303 0.840485 1.04055 1.00947 0.821744 1.04071 0.977897 0.840744 1.02809 0.984429 0.996766 1.0033 1.04062 1.02789 1.03454 1.03452 0.734589 1.04704 1.03423 1.00932 1.00331 0.79692 1.02826 1.02168 1.02208 0.990431 0.790649 1.01574 1.07795 0.940692 1.06565 0.815746 0.959528 1.06571 0.965511 1.06571 0.834414 0.946741 1.05946 0.859459 0.928132 1.0845 0.909599 0.846993 1.07822 0.86572 1.09055 0.87835 0.884598 1.0655 0.865588 0.865687 0.89039 0.871678 1.05962 0.903169 0.990771 1.06546 0.88439 0.934574 1.05304 0.984175 1.04054 0.853033 0.978354 1.04085 0.859373 0.872083 0.978118 1.03456 0.953245 1.01539 0.840795 0.852994 0.953117 1.05309 0.89698 0.896838 1.05325 0.90953 0.884577 1.05916 0.878286 1.07816 0.89671 0.846686 0.903081 0.884524 1.05337 0.921757 0.890423 1.04682 0.903353 0.897082 1.04084 0.859308 0.909563 0.871788 0.915642 1.05932 0.865565 1.1282 0.890531 1.14054 0.822047 1.12203 0.878089 1.13447 0.909618 1.12805 1.14671 1.15315 0.903024 0.89085 1.13417 1.14706 1.14046 0.871739 0.909355 1.12184 0.828173 1.12202 0.859343 1.12816 1.11579 0.896657 1.13413 0.865828 1.14062 0.809353 0.93432 1.14687 1.15293 1.14076 0.853306 0.91551 1.14673 0.877934 1.13449 0.921734 1.14069 1.15943 0.934183 0.859255 1.16587 1.15927 0.928173 1.15332 1.15929 1.16544 1.17794 1.17173 1.17207 1.1594 0.946693 1.17792 0.934333 1.1654 1.14708 1.15316 1.15938 1.14072 1.14699 1.15305 1.17163 0.940574 1.15921 1.16564 1.15319 0.846683 1.16549 0.953246 1.12164 1.12799 1.12811 1.12191 1.11541 0.965705 1.12796 1.13452 0.890746 1.14706 0.953137 1.14084 1.13432 1.14691 1.147 1.11554 1.11566 1.12173 1.12168 1.12806 0.94681 1.1346 1.12834 1.13449 1.1471 1.14039 1.15313 0.95298 1.14086 1.15296 1.1529 1.15921 1.15299 1.15953 0.922004 1.15931 0.972051 1.1654 1.17184 1.16577 1.15947 0.978203 1.17178 0.95945 1.15288 0.959151 1.16546 1.16547 0.959498 0.934306 1.15945 0.902969 1.16578 1.172 0.946675 1.16544 0.909297 1.17182 1.17184 0.97169 1.17194 0.915409 0.928301 1.17178 1.17815 0.922109 1.18419 0.927951 1.17208 0.884592 1.17212 0.93449 1.178 0.890406 0.928107 1.18427 1.18441 0.921956 0.915591 1.17171 0.90311 1.17815 1.17803 0.921676 0.940707 1.17799 1.1718 0.922027 1.17837 0.990828 1.19038 1.17814 0.940462 1.16541 0.940687 1.1844 0.984601 1.19086 0.928238 0.934232 1.18419 1.1844 0.978071 1.17166 1.19071 0.946668 1.19085 0.965771 1.17817 1.17799 0.940833 0.878366 1.1782 0.915789 1.17817 0.940784 0.89702 1.18446 1.18444 1.18416 0.959323 1.17804 0.965808 1.18422 0.952876 0.959603 1.17811 1.18462 1.18435 0.87181 1.18441 0.965554 1.18413 0.915629 1.19064 0.884148 1.19079 0.977988 1.18439 1.18436 1.18425 1.19086 0.946756 1.17819 1.17212 1.17802 1.18428 1.18416 1.17803 0.953253 1.17823 1.18417 0.959423 1.19085 1.1842 1.19054 1.19044 1.19064 1.17811 0.971648 1.18454 1.17804 0.959476 1.17803 1.17196 0.978003 1.18453 0.890874 1.18425 1.18454 0.871951 1.1779 0.921689 1.1908 1.1906 0.896837 1.19701 1.18428 0.915786 1.19676 1.18428 0.921784 1.1842 1.18454 0.909549 1.19064 1.19058 0.915583 1.18427 1.19041 0.940453 1.18454 1.19693 1.19692 1.09678 1.19076 1.19081 1.08438 1.19042 0.928079 1.12821 1.19085 1.07828 1.12173 0.934443 1.19057 1.10933 1.19711 1.19056 1.19684 1.19047 1.13453 0.946809 1.09083 1.1908 1.09055 1.05952 1.19672 0.940527 1.19687 1.1471 1.10952 1.12817 1.04046 1.12195 1.10944 0.928293 1.1217 1.07212 1.14061 1.08422 1.14695 1.097 1.14086 0.915539 1.13457 1.07823 1.12801 1.14056 1.06544 1.13457 0.934189 1.07834 1.10942 1.09672 0.947033 1.09666 1.10296 1.1095 0.934562 1.09061 1.11578 1.0656 1.09705 0.940632 1.11584 1.10334 1.10311 1.07835 1.09707 1.0843 1.10944 0.953261 1.09685 1.12184 1.06562 1.13454 1.08447 1.13419 0.978291 1.0845 1.12827 1.07801 1.04709 0.953268 1.11569 1.14697 1.15293 1.01572 0.959402 1.07798 1.04676 1.15929 1.05944 0.984279 1.07168 1.16567 1.15942 1.06561 1.15321 1.17164 1.17797 0.959522 1.05335 1.17813 1.14691 1.05914 1.15914 0.965792 1.16543 1.05324 0.990472 1.15952 0.928098 1.14691 1.15337 1.12812 1.00948 1.12832 1.13456 0.934477 1.05931 1.15315 1.03446 1.1655 0.934301 1.05335 1.15323 1.12207 0.953267 1.09663 1.00926 1.10952 1.02794 1.09053 1.04689 0.946916 1.03458 1.07819 1.03446 0.959523 1.07207 1.10309 1.02827 0.940484 1.11574 1.06567 1.12164 1.10961 1.09709 0.953208 1.10295 0.946712 1.00315 1.00934 1.02206 1.07163 1.04055 1.07209 1.02837 1.00959 1.01572 1.00299 0.97815 0.996958 1.07197 1.00922 1.03431 1.01552 1.04041 0.99681 1.02207 1.07174 1.0467 0.953209 1.05334 1.01568 0.959536 1.08448 1.04692 0.965449 1.06542 1.0093 0.972003 1.07175 0.984354 0.965609 1.00295 1.08419 0.984536 1.09054 1.00942 1.09693 0.990473 1.0843 1.00297 0.996827 0.984468 0.984263 1.07811 0.984197 0.977883 1.07183 0.990727 0.971696 0.996771 1.07809 0.990438 1.122 0.984447 1.14067 1.10957 0.996765 0.996922 1.09705 0.996673 1.12208 0.978209 1.09671 1.12788 1.00324 1.13413 0.959197 1.14663 1.08452 1.11573 1.09039 1.14078 0.947003 1.13444 1.06555 1.09057 1.10304 1.07209 0.971846 1.10319 1.07176 1.07796 1.09054 1.07192 1.0844 0.95931 1.08434 1.06567 1.10936 0.953183 1.11551 1.10956 1.05301 1.09696 0.971765 1.0907 1.05958 1.10955 0.978282 1.17805 0.903178 1.18436 0.965453 1.19075 1.04688 1.16553 0.897015 1.05933 1.18418 0.971956 1.1779 1.19069 1.19697 0.884157 0.965838 1.1904 1.02791 1.19664 1.18459 0.909326 1.19066 0.984324 1.05328 1.18414 1.1782 1.1845 0.896685 0.978124 1.19046 1.0533 1.17163 0.890418 1.14686 1.0029 1.17202 1.03449 0.871633 1.16555 0.990755 1.04706 0.884384 0.984465 1.1908 1.0406 1.19066 0.984156 0.871712 1.17817 1.04044 1.1843 0.996965 0.865861 1.19665 1.04693 1.19692 1.19671 0.890498 1.00336 1.19684 1.19062 0.87789 1.01538 1.19697 0.990794 1.19697 1.01559 0.884563 1.00959 1.19687 1.19677 1.02821 1.19686 0.872122 1.19684 1.01573 1.19063 1.05321 1.19687 1.19667 1.19705 0.915645 0.997 1.19062 1.19673 1.19702 1.06556 1.19044 0.902954 1.022 1.19707 1.05916 1.19696 0.89682 1.15938 1.03413 1.12183 1.05915 1.14077 0.927877 1.15294 1.14058 1.02831 0.921664 1.11549 1.04046 1.19045 1.18454 1.00307 0.940846 1.19705 1.02798 1.1719 0.996757 0.928351 1.06561 1.12837 1.00958 1.12171 0.909518 1.04039 1.14064 1.11545 1.10314 1.0346 1.00957 0.890768 1.11546 1.11543 1.04687 1.147 1.13445 1.02163 1.14087 1.02169 0.877918 1.00952 1.09702 1.1219 1.02834 1.13459 0.896836 1.16573 1.01586 1.03424 1.18438 0.90299 1.19043 1.19666 1.02193 1.15931 0.884461 1.02798 1.15316 1.18414 1.02793 1.19706 1.19686 1.00312 1.1908 1.01566 1.19674 1.01566 1.19707 1.19667 1.0157 1.19686 1.12807 1.00917 0.846769 1.00333 1.04067 1.17185 1.02195 1.03448 1.14663 1.1342 1.1968 1.02802 1.02184 1.09676 1.19678 1.19683 1.01558 1.07205 1.0344 1.10337 1.19705 1.00922 1.03433 1.0096 1.04682 1.02203 0.859158 1.04672 0.853133 1.04079 1.04076 1.05302 0.846921 1.04046 1.04061 1.02185 1.04677 1.05327 0.865529 1.02791 1.06544 0.853124 1.03415 0.965446 0.840737 1.00926 0.959242 1.00334 0.971809 0.971824 1.01577 0.978213 1.00326 0.840619 0.984322 0.996923 0.977965 0.997042 0.971991 1.02183 0.953113 0.978287 0.990501 1.00298 0.940405 0.984378 1.00955 0.990396 0.947117 0.884127 0.972088 1.00311 0.959127 0.990642 0.978147 0.934176 0.96578 0.990453 0.909276 0.996968 0.990865 0.871717 0.884