# vtk DataFile Version 3.0
vtk output
ASCII
DATASET UNSTRUCTURED_GRID
POINTS 24180 float
0.351501 0 0
1 0 0
1 0.343806 0
0.351501 0 0
0 0 0
0.0338821 0 0
0.455317 0.658403 0
0.205681 1 0
0 1 0
0 0 0
0.638309 0 0
1 0 0
1 0.20148 0
0.638309 0 0
0 0 0
0.46046 0 0
0.149432 1 0
0 1 0
0 0 0
0.325016 0 0
1 0 0
1 0.380587 0
0.325016 0 0
0 0 0
0.710981 0 0
0.444029 0.671735 0
0.309315 1 0
0 1 0
0 0 0
0 0 0
1 0 0
1 0.100638 0
0 0.484385 0
0 0 0
0 0 0
0.728827 0 0
0.44406 0.67089 0
0.299727 1 0
0 1 0
0 0 0
0.0606942 0 0
1 0 0
1 0.819443 0
0.174174 0.102033 0
0.0606942 0 0
0 0 0
0.178031 0 0
0.1857 0.0122037 0
0.767028 1 0
0 1 0
0 0 0
0 0 0
0.112567 0 0
0.365254 0.385724 0
0.739494 1 0
0 1 0
0 0 0
0 0 0
1 0 0
1 0.169114 0
0.307113 0.402572 0
0.12874 0.21837 0
0 0.0767917 0
0 0 0
0 0 0
0.0596203 0 0
0.738663 1 0
0 1 0
0 0 0
0 0 0
1 0 0
1 0.216174 0
0 0.491749 0
0 0 0
0 0 0
1 0 0
1 0.208347 0
0.437679 0.418913 0
0 0.569715 0
0 0 0
0 0 0
0.282307 0 0
0.847578 1 0
0 1 0
0 0 0
0 0 0
1 0 0
1 0.222666 0
0 0.747399 0
0 0 0
0 0.154642 0
0.450484 0.544303 0
0.245663 1 0
0 1 0
0 0.154642 0
0.251018 0 0
1 0 0
1 0.496799 0
0.60855 0.246319 0
0.251018 0 0
0.254318 0 0
1 0 0
1 0.521067 0
0.597605 0.249414 0
0.254318 0 0
0 0.342734 0
0.449425 0.812917 0
0.620302 1 0
0 1 0
0 0.342734 0
0 0 0
1 0 0
1 0.144514 0
0.133567 0.674419 0
0 0.753709 0
0 0 0
0 0.178991 0
0.462698 0.580656 0
0.226498 1 0
0 1 0
0 0.178991 0
0 0 0
1 0 0
1 0.211162 0
0 0.680571 0
0 0 0
0 0.625214 0
0.275563 1 0
0 1 0
0 0.625214 0
0 0 0
1 0 0
1 0.25265 0
0.0730913 0.673232 0
0 0.704029 0
0 0 0
0 0.385878 0
0.288299 0.683605 0
0.580056 1 0
0 1 0
0 0.385878 0
0.234446 0 0
1 0 0
1 0.618554 0
0.234446 0 0
0 0 0
0.79945 0 0
0.353304 0.990494 0
0.348794 1 0
0 1 0
0 0 0
0 0.534933 0
0.348927 1 0
0 1 0
0 0.534933 0
0.88952 0 0
1 0 0
1 0.0490756 0
0.88952 0 0
0 0 0
0.650033 0 0
0.335431 0.762415 0
0.232714 1 0
0 1 0
0 0 0
0.984441 0 0
1 0 0
1 0.0137086 0
0.984441 0 0
0 0 0
0.143261 0 0
0.661686 1 0
0 1 0
0 0 0
0 0 0
0.198636 0 0
0.95334 1 0
0 1 0
0 0 0
0.496868 0 0
1 0 0
1 0.390593 0
0.922201 0.332909 0
0.496868 0 0
0 0 0
0.130722 0 0
0.236729 0.281637 0
0.476661 1 0
0 1 0
0 0 0
0.72189 0 0
1 0 0
1 0.118305 0
0.72189 0 0
0 0 0
0.0375538 0 0
0.703918 1 0
0 1 0
0 0 0
0.499482 0 0
1 0 0
1 0.30389 0
0.499482 0 0
0.775808 0 0
1 0 0
1 0.167952 0
0.775808 0 0
0 0 0
0.084702 0 0
0 0.196877 0
0 0 0
0.765645 0 0
1 0 0
1 0.099628 0
0.891618 0.0556581 0
0.765645 0 0
0.66141 0 0
1 0 0
1 0.177421 0
0.66141 0 0
0.741215 0 0
1 0 0
1 0.21255 0
0.741215 0 0
0 0.976799 0
0.0172748 1 0
0 1 0
0 0.976799 0
0.356594 0 0
1 0 0
1 0.381614 0
0.356594 0 0
0.259325 0 0
1 0 0
1 0.58538 0
0.571166 0.256889 0
0.259325 0 0
0.354628 0 0
1 0 0
1 0.402089 0
0.354628 0 0
0 0 0
1 0 0
1 0.320676 0
0.326747 0.586088 0
0 0.709468 0
0 0 0
0 0.745969 0
0.0157719 0.771552 0
0.146723 1 0
0 1 0
0 0.745969 0
0.151974 0 0
1 0 0
1 0.824493 0
0.969056 0.794578 0
0.151974 0 0
0 0.976784 0
0.0105 1 0
0 1 0
0 0.976784 0
0 0 0
1 0 0
1 0.344792 0
0 0.861493 0
0 0 0
0.160436 0 0
1 0 0
1 0.8562 0
0.160436 0 0
0 0.934059 0
0.0315772 1 0
0 1 0
0 0.934059 0
0.373588 0 0
1 0 0
1 0.430268 0
0.373588 0 0
0.491317 0 0
1 0 0
1 0.324676 0
0.491317 0 0
0 0.724896 0
0.210649 1 0
0 1 0
0 0.724896 0
0.484615 0 0
1 0 0
1 0.344274 0
0.484615 0 0
0 0.664004 0
0.172918 1 0
0 1 0
0 0.664004 0
0.877448 0.173169 0
0.53492 0 0
1 0 0
1 0.231507 0
0.877448 0.173169 0
0 0 0
1 0 0
1 0.407915 0
0.460855 0.609861 0
0.142421 0.216432 0
0 0.0287642 0
0 0 0
0.292532 0 0
1 0 0
1 0.565156 0
0.292532 0 0
0 0 0
1 0 0
1 0.869511 0
0.834945 0.774456 0
0 0.274567 0
0 0 0
0 0.991073 0
0.00460192 1 0
0 1 0
0 0.991073 0
0 0 0
1 0 0
1 0.212669 0
0 0.766309 0
0 0 0
0 0.723675 0
0.0206308 0.763667 0
0.13342 1 0
0 1 0
0 0.723675 0
0 0.880364 0
0.105264 1 0
0 1 0
0 0.880364 0
0 0 0
1 0 0
1 0.795164 0
0.703734 0.622606 0
0 0.192891 0
0 0 0
0 0.929215 0
0.0241303 1 0
0 1 0
0 0.929215 0
0 0 0
1 0 0
1 0.388292 0
0.376116 0.717094 0
0 0.901476 0
0 0 0
0 0.482131 0
0.0790267 0.561959 0
0.489357 1 0
0 1 0
0 0.482131 0
0 0 0
1 0 0
1 0.927049 0
0.318853 0.50132 0
0 0.294937 0
0 0 0
0 0.588541 0
0.318382 1 0
0 1 0
0 0.588541 0
0 0 0
1 0 0
1 0.89056 0
0.823515 0.7836 0
0 0.265055 0
0 0 0
0 0 0
1 0 0
1 0.272078 0
0.890471 0.328529 0
0 0.747119 0
0 0 0
0 0.176896 0
0.466679 0.54666 0
0.446235 0.610265 0
0.317 1 0
0 1 0
0 0.176896 0
0 0.511947 0
0.148623 0.701068 0
0.3706 1 0
0 1 0
0 0.511947 0
0 0 0
1 0 0
1 0.817777 0
0.712616 0.642442 0
0 0.187729 0
0 0 0
0 0.177874 0
0.543563 0.59256 0
0.357629 1 0
0 1 0
0 0.177874 0
0 0 0
1 0 0
1 0.669151 0
0.445185 0.417167 0
0.0293744 0.219739 0
0 0.205135 0
0 0 0
0 0 0
0.779049 0 0
0.339186 0.987192 0
0.333166 1 0
0 1 0
0 0 0
0 0 0
1 0 0
1 0.908861 0
0.814308 0.790966 0
0 0.254159 0
0 0 0
0 0 0
0.0799511 0 0
0.272192 0.297671 0
0.420728 0.544663 0
0.681757 1 0
0 1 0
0 0 0
0 0 0
1 0 0
1 0.837015 0
0.291561 0.451167 0
0 0.286732 0
0 0 0
0 0.195065 0
0.236309 0.560383 0
0.49266 1 0
0 1 0
0 0.195065 0
0 0 0
1 0 0
1 0.778531 0
0.202774 0.324489 0
0 0.199574 0
0 0 0
0 0.0865611 0
0.0278839 0.131582 0
0.441099 0.821396 0
0.545679 1 0
0 1 0
0 0.0865611 0
0 0 0
0.0152348 0 0
0 0.0121595 0
0 0 0
0 0 0
0.0236222 0 0
0.763443 1 0
0 1 0
0 0 0
0 0 0
1 0 0
1 0.973568 0
0.498692 0.725417 0
0 0.467935 0
0 0 0
0 0 0
0.0365188 0 0
0.571512 1 0
0 1 0
0 0 0
0 0 0
0.0590741 0 0
0 0.0467897 0
0 0 0
0 0 0
1 0 0
1 1 0
0.874549 1 0
0.604849 0.867822 0
0 0.558209 0
0 0 0
0 0.549665 0
0.139994 0.73429 0
0.329818 1 0
0 1 0
0 0.549665 0
0 0 0
0.0339036 0 0
0 0.0253022 0
0 0 0
0 0 0
1 0 0
1 0.951839 0
0 0.461528 0
0 0 0
0 0 0
0.127959 0 0
0 0.086369 0
0 0 0
0 0.208646 0
0.0186339 0.222584 0
0.61342 0.689266 0
0.422522 1 0
0 1 0
0 0.208646 0
0 0 0
0.0452236 0 0
0 0.0311787 0
0 0 0
0 0.427587 0
0.510895 1 0
0 1 0
0 0.427587 0
0 0 0
0.213594 0 0
0 0.131119 0
0 0 0
0 0 0
1 0 0
1 0.536203 0
0.535956 0.757154 0
0 0.364239 0
0 0 0
0 0 0
1 0 0
1 1 0
0 1 0
0 0 0
0 0.653863 0
0.0571095 0.731533 0
0.241853 1 0
0 1 0
0 0.653863 0
0 0 0
1 0 0
1 1 0
0 1 0
0 0 0
0 0 0
1 0 0
1 1 0
0.793969 1 0
0 0.555664 0
0 0 0
0 0.195748 0
0.0221763 0.211893 0
0.598753 0.652035 0
0.47897 1 0
0 1 0
0 0.195748 0
0 0 0
1 0 0
1 0.970747 0
0 0.457362 0
0 0 0
0 0 0
1 0 0
1 0.9711 0
0 0.367836 0
0 0 0
0 0.219917 0
0.0157525 0.231279 0
0.570383 0.651336 0
0.453162 1 0
0 1 0
0 0.219917 0
0 0 0
1 0 0
1 0.925902 0
0 0.30189 0
0 0 0
0 0.0967693 0
0.0214819 0.129935 0
0.43892 0.795332 0
0.56438 1 0
0 1 0
0 0.0967693 0
0 0 0
0.0256389 0 0
0 0.0285546 0
0 0 0
0 0 0
1 0 0
1 0.993308 0
0.318929 0.506381 0
0 0.271086 0
0 0 0
0 0 0
0.0226021 0 0
0.617303 1 0
0 1 0
0 0 0
0 0 0
1 0 0
1 1 0
0 1 0
0 0 0
0 0 0
0.0191389 0 0
0 0.0192624 0
0 0 0
0 0 0
0.0788968 0 0
0 0.0781394 0
0 0 0
0 0.198601 0
0.35303 0.816084 0
0.451178 1 0
0 1 0
0 0.198601 0
0 0 0
1 0 0
1 1 0
0.989539 1 0
0 0.447319 0
0 0 0
0 0 0
1 0 0
1 1 0
0.664088 1 0
0 0.588646 0
0 0 0
0 0.222108 0
0.244348 0.550349 0
0.547428 1 0
0 1 0
0 0.222108 0
0 0.308379 0
0.532859 1 0
0 1 0
0 0.308379 0
0 0 0
1 0 0
1 0.681087 0
0.446634 0.414899 0
0.029025 0.205165 0
0 0.189931 0
0 0 0
0 0 0
1 0 0
1 1 0
0 1 0
0 0 0
0 0 0
0.0139924 0 0
0 0.018871 0
0 0 0
0 0 0
1 0 0
1 0.657856 0
0.494255 0.3615 0
0 0.0487997 0
0 0 0
0 0 0
0.342681 0 0
0.976468 1 0
0 1 0
0 0 0
0 0 0
1 0 0
1 1 0
0 1 0
0 0 0
0 0 0
0.0543333 0 0
0 0.0599414 0
0 0 0
0 0 0
1 0 0
1 0.670712 0
0.255885 0.275653 0
0 0.12904 0
0 0 0
0 0 0
0.469658 0 0
0.735828 0.443018 0
1 0.905633 0
1 1 0
0 1 0
0 0 0
0 0 0
0.0262248 0 0
0 0.0312167 0
0 0 0
0 0 0
0.0572404 0 0
0 0.0601556 0
0 0 0
0 0 0
0.192881 0 0
0.937968 1 0
0 1 0
0 0 0
0 0 0
1 0 0
1 0.801887 0
0.203738 0.322211 0
0 0.189819 0
0 0 0
0 0 0
0.114979 0 0
0 0.107902 0
0 0 0
0 0 0
0.510096 0 0
1 0.789464 0
1 1 0
0 1 0
0 0 0
0 0 0
1 0 0
1 0.713837 0
0.444094 0.418875 0
0.0286441 0.189274 0
0 0.172786 0
0 0 0
0 0 0
0.0217337 0 0
0 0.0275456 0
0 0 0
0 0 0
1 0 0
1 1 0
0 1 0
0 0 0
0 0 0
1 0 0
1 1 0
0 1 0
0 0 0
0 0 0
0.102169 0 0
0 0.107642 0
0 0 0
0 0 0
1 0 0
1 1 0
0 1 0
0 0 0
0 0 0
1 0 0
1 0.826521 0
0.203797 0.322071 0
0 0.183052 0
0 0 0
0 0 0
1 0 0
1 1 0
0 1 0
0 0 0
0 0 0
0.154645 0 0
0 0.124765 0
0 0 0
0 0 0
1 0 0
1 1 0
0 1 0
0 0 0
0 0 0
1 0 0
1 1 0
0 1 0
0 0 0
0 0 0
1 0 0
1 0.677406 0
0.492575 0.367291 0
0 0.0429042 0
0 0 0
0 0 0
0.0345316 0 0
0 0.0308701 0
0 0 0
0 0 0
0.0621911 0 0
0 0.0449086 0
0 0 0
0 0 0
0.265141 0 0
0.868051 1 0
0 1 0
0 0 0
0 0 0
0.00562201 0 0
0 0.00532131 0
0 0 0
0 0 0
1 0 0
1 0.473111 0
0.378614 0.69389 0
0.374155 0.695394 0
0.256453 0.533579 0
0 0.17289 0
0 0 0
0 0 0
0.116514 0 0
0 0.0865863 0
0 0 0
0 0 0
0.386968 0 0
0.980752 1 0
0 1 0
0 0 0
0 0 0
0.0774171 0 0
0 0.0591373 0
0 0 0
0 0 0
0.268847 0 0
0.905836 1 0
0 1 0
0 0 0
0 0 0
0.19353 0 0
0.00143746 0.150258 0
0 0.151313 0
0 0 0
0 0 0
1 0 0
1 0.548856 0
0.527725 0.715243 0
0.150111 0.215342 0
0 0.00305822 0
0 0 0
0 0 0
0.162934 0 0
0 0.102249 0
0 0 0
0 0 0
1 0 0
1 0.7362 0
0.439894 0.425447 0
0.0286149 0.188055 0
0 0.170879 0
0 0 0
0 0 0
0.209135 0 0
0 0.144166 0
0 0 0
0 0.0564267 0
0.371717 0.51791 0
0.74416 1 0
0 1 0
0 0.0564267 0
0 0 0
1 0 0
1 0.703289 0
0.490733 0.373642 0
0 0.032146 0
0 0 0
0 0 0
0.236306 0 0
0 0.118241 0
0 0 0
0 0 0
0.347366 0 0
1 0.933932 0
1 1 0
0 1 0
0 0 0
0 0 0
0.223878 0 0
0 0.143727 0
0 0 0
0 0 0
1 0 0
1 0.74328 0
0.255738 0.276015 0
0 0.104022 0
0 0 0
0 0 0
0.317494 0 0
0.867642 1 0
0 1 0
0 0 0
0 0 0
0.296558 0 0
0 0.197699 0
0 0 0
0 0 0
1 0 0
1 1 0
0 1 0
0 0 0
0 0 0
1 0 0
1 1 0
0 1 0
0 0 0
0 0 0
0.321022 0 0
0 0.187275 0
0 0 0
0 0 0
1 0 0
1 1 0
0 1 0
0 0 0
0 0 0
1 0 0
1 0.954668 0
0.791034 0.809586 0
0 0.239997 0
0 0 0
0 0 0
1 0 0
1 1 0
0 1 0
0 0 0
0 0 0
0.289321 0 0
0.0720508 0.237781 0
0 0.309111 0
0 0 0
0 0 0
1 0 0
1 1 0
0.878635 1 0
0 0.290095 0
0 0 0
0 0 0
0.201333 0 0
0.0125002 0.157179 0
0 0.16694 0
0 0 0
0 0 0
0.505828 0 0
1 0.79536 0
1 1 0
0 1 0
0 0 0
0 0 0
1 0 0
1 1 0
0 1 0
0 0 0
0 0 0
0.128097 0 0
0 0.112777 0
0 0 0
0 0 0
1 0 0
1 1 0
0 1 0
0 0 0
0 0 0
1 0 0
1 0.983009 0
0.777421 0.820476 0
0 0.231964 0
0 0 0
0 0 0
1 0 0
1 1 0
0 1 0
0 0 0
0 0 0
1 0 0
1 1 0
0 1 0
[...]
CELL_DATA 4838
FIELD FieldData 3
weight 1 4838 float
 0.953003 0.965474 0.890579 0.927892 0.972063 0.978158 0.996631 0.97796 0.98428 0.990563 0.996883 0.990718 1.00314 0.996991 1.00333 1.03434 1.03454 0.94674 0.96584 0.971951 0.909537 1.00937 0.915562 1.02187 0.865526 1.02192 0.915671 0.977884 0.971993 0.872025 0.878357 0.934457 0.803001 1.00925 1.03418 0.927912 0.984285 0.915702 1.00293 0.940425 0.884339 0.734561 0.909566 0.934149 0.896845 0.803351 0.959325 0.99047 0.965495 1.01556 0.859271 1.00337 0.83418 1.02824 1.00937 0.840711 0.965748 0.946915 0.853272 0.953365 0.890685 0.940478 1.02825 0.997086 1.06543 0.834342 1.03431 0.878267 0.828164 1.05326 0.859325 1.07181 0.903293 1.06572 0.884433 1.06545 1.02788 0.946841 0.915861 1.05931 0.959215 1.04688 0.940687 1.06557 1.02203 1.07181 0.971849 1.05325 0.997027 0.896861 1.02827 1.08434 0.996835 0.90314 1.09051 0.909341 0.909563 1.08449 0.92167 0.965565 0.903197 0.953108 0.934564 1.0719 1.10934 0.897107 1.11575 1.09663 0.990844 1.09047 1.07797 0.959553 1.07169 1.00293 0.890599 1.07796 1.01577 1.10318 0.890833 0.909518 0.977962 1.09684 1.10956 0.984596 0.978247 1.04059 1.04709 0.88436 1.0404 1.02832 1.05292 0.896688 1.0407 1.04712 0.890835 0.896779 1.01577 1.05954 0.915476 1.04065 1.04683 0.890564 1.05937 1.04075 0.909332 1.06564 1.06539 1.05957 0.921933 1.04705 1.07209 1.04703 0.902882 0.909434 1.02196 0.884464 1.03441 0.915735 1.02831 0.915813 1.05309 0.92791 1.03456 0.921715 1.05956 0.934477 0.972074 1.05321 0.9281 1.03444 0.94074 1.06568 1.03429 0.940484 1.04696 1.05302 0.946712 1.02798 1.07815 1.07821 0.953209 1.0905 0.934301 1.05917 1.06565 0.921631 1.05918 1.08418 1.08423 1.07164 1.07809 0.959523 1.10336 1.06587 0.927918 1.07823 1.08416 1.0968 1.09066 0.946916 1.1032 1.09685 1.08433 1.07185 1.09073 0.965609 1.07835 1.06564 1.05939 0.977883 1.05296 1.05306 1.07185 1.07835 1.00312 1.07197 0.959536 1.0971 1.09065 1.09696 1.07195 0.984536 1.07797 1.08447 1.08418 1.07209 0.984263 1.09054 0.990438 1.0094 1.04076 1.02811 0.871664 0.997065 1.02192 1.04055 0.92201 1.04668 1.01568 0.877938 1.04685 0.946691 1.02795 1.03461 1.00952 1.02168 1.0033 0.940854 0.997065 1.00317 0.953255 1.0032 0.978139 1.00937 1.00337 1.00303 1.01569 1.02837 0.972058 1.13453 1.19684 1.1471 0.978243 1.097 0.85931 1.02171 1.10933 0.928295 1.11539 1.12173 0.971849 1.02192 1.09051 1.09666 1.10936 0.947077 1.19675 0.984352 1.14673 1.14038 1.05915 1.12788 1.11546 0.940831 1.05914 1.15917 1.05956 1.16559 1.04081 1.13459 0.959413 1.04704 1.13448 1.12186 1.13444 0.953163 1.05324 1.15317 1.05332 1.10295 1.06542 0.85941 1.04698 1.10293 1.04062 1.1407 1.13423 1.10918 1.0406 1.0843 1.12166 0.865755 0.903274 1.03416 1.12794 1.04676 1.11551 0.872051 1.12198 0.934521 0.996707 1.10944 1.05952 1.03449 0.915548 1.09083 1.03446 1.06544 1.05931 0.921658 1.08422 1.02818 1.09061 1.05317 1.09672 0.940532 1.04077 1.07834 1.0845 1.09705 1.03428 1.00948 1.03436 1.10939 1.04689 1.02209 1.04055 1.02828 0.903002 1.04699 1.01559 1.07823 1.0656 1.09685 0.909586 1.05335 1.08447 1.07801 1.10333 1.10334 1.09039 0.959551 1.1095 1.06562 0.953258 1.08452 1.07835 0.946983 1.12164 1.11587 0.815439 0.977937 1.09693 1.10916 1.0783 0.965581 1.07168 1.05933 0.865653 1.04709 1.06561 0.959413 1.05944 1.07176 1.07209 0.847023 0.928341 1.05958 1.06555 1.05328 0.915603 0.884562 1.07192 1.0533 1.14063 0.915547 1.14046 1.1345 0.859354 1.12791 0.940613 1.11573 1.12186 1.10305 0.953079 1.12193 1.13455 1.10942 1.02803 1.10327 1.11545 1.11538 1.02198 1.10933 1.12185 1.01546 0.853265 1.09038 1.10295 1.00962 1.09062 1.11572 1.10915 0.871826 1.04073 1.10301 0.853271 1.07822 1.09682 1.12204 1.11563 0.87818 1.03413 1.10919 1.13428 1.12819 1.02797 0.884503 1.11553 1.10922 0.902928 0.996746 0.878188 1.10915 0.884138 1.10303 1.10934 0.984323 1.10328 0.921855 1.10333 1.1219 0.871924 1.0967 0.890525 1.09066 1.0907 0.909596 1.08439 0.952909 1.07197 1.09668 0.921956 1.09676 1.09074 0.884398 1.09039 0.946803 0.965717 1.08424 1.01574 1.09086 1.09689 1.02211 1.07188 1.06586 1.09681 0.934604 1.00326 1.0782 0.990516 1.05942 1.0842 1.04059 1.09067 0.859139 1.07797 0.97833 1.09062 1.07163 0.865678 0.921901 1.08428 1.04067 1.08457 1.07179 0.872058 1.07828 0.996856 1.07808 1.06567 0.890852 0.971786 1.05916 1.08443 0.896899 1.08446 0.915487 1.05334 0.890538 1.06556 0.896829 0.897078 0.902904 0.903129 0.878109 0.896841 0.909549 0.928098 0.915583 0.934443 0.921689 0.940527 0.940453 0.871636 0.903123 0.921784 0.88445 0.890874 0.878368 1.06561 0.896837 1.08435 0.928293 1.04039 0.890758 1.0529 1.07194 0.928079 1.0783 1.05949 1.07806 0.903319 1.06553 0.978291 1.05953 1.05337 0.903157 0.953268 1.0596 1.07807 1.02196 0.940862 0.947033 1.06581 1.05333 0.922013 1.0593 0.953261 1.02799 0.953043 1.08421 0.953267 1.05947 0.96577 1.04684 0.984279 1.05326 1.06585 0.959208 1.0468 0.972003 1.02173 1.08442 0.971878 1.07208 1.05308 0.946809 1.07796 0.965741 1.0468 0.940601 1.04665 0.959402 1.0408 0.990496 0.990821 1.05305 1.00307 1.03438 0.997105 1.05942 0.990472 1.07163 1.02206 1.02179 1.02802 1.00934 0.990473 1.01572 1.0092 0.996827 1.00926 1.03458 0.997049 1.02837 1.02163 1.00922 1.02794 0.99057 0.996693 1.00957 1.10317 1.07209 0.853222 0.984251 1.01586 1.00316 0.990454 0.984324 1.0343 0.847036 1.00299 0.971909 1.06567 0.996757 1.03446 0.890492 1.01538 0.971956 0.996958 0.865544 0.965792 1.01572 0.859625 0.978254 0.990755 1.01552 1.07197 0.984416 0.871976 1.00952 1.07798 1.05324 1.05914 1.02171 1.05335 1.04676 1.01565 1.05334 1.02791 1.01573 1.04706 1.03449 1.04044 1.03449 1.0344 1.0406 1.06581 1.02827 1.03431 1.02184 1.02207 1.04708 1.04041 1.01568 1.0467 1.04079 1.03433 1.01538 1.02821 1.04682 1.02791 1.04046 1.00926 0.971752 1.04682 0.978102 1.02824 1.02196 0.977934 0.971942 1.04679 1.0095 1.00959 1.05918 0.972118 0.990563 0.984354 0.865489 1.00295 0.97815 1.00325 0.990634 1.04672 1.00297 1.01566 0.953173 0.946706 0.915539 1.01583 0.984194 0.965638 1.1158 0.953038 0.91569 1.11571 0.915786 0.959319 1.11543 0.934129 1.12167 0.96539 1.14675 0.940632 0.971646 0.909133 1.12202 0.978085 1.12173 0.984515 1.1221 0.852893 0.965441 0.90945 1.12798 1.04692 0.99681 0.953258 0.934562 1.10932 1.0093 1.14053 0.984197 0.928273 0.95931 1.13452 0.927998 0.990727 0.934189 1.13415 1.00334 1.14051 0.946872 1.03415 0.971846 1.13428 0.959576 0.996771 0.965838 1.14691 1.00326 0.915527 1.02185 1.15295 1.00942 1.15293 0.978124 0.996922 0.94072 1.15301 0.984468 1.15318 0.959522 0.978209 0.878068 1.14042 0.984447 1.1471 1.02183 1.14702 1.00955 0.896806 1.14072 1.00298 0.990642 0.997 1.11571 0.990501 0.928034 0.921653 0.996968 0.909541 1.09695 1.05301 1.12795 0.947003 1.12824 0.884175 1.04046 1.12196 0.952916 1.05321 0.940412 1.04688 1.03424 1.04693 0.934404 1.10302 1.05915 0.953183 1.0346 1.04063 1.04687 0.965453 1.02798 0.922055 1.10313 1.02834 1.02169 1.01559 0.947074 1.01566 1.11543 1.02193 0.996965 1.01577 1.02793 1.0157 0.890571 1.02802 1.10933 1.03448 1.01558 1.01583 1.00922 1.11562 1.0096 0.940694 1.02207 1.0343 1.10943 0.978282 1.02826 0.903058 1.01551 1.01553 1.12205 1.00324 0.940474 1.02834 1.14049 1.0219 1.03448 1.13459 1.04071 1.13424 1.02809 0.98416 1.13434 1.02171 0.990794 1.14667 1.14073 0.978001 1.13413 1.12835 1.12813 1.00959 1.14057 1.12209 1.00923 1.01549 1.15957 1.03427 1.15927 1.0029 0.990784 1.1595 1.15962 0.965813 1.15916 1.15317 1.14071 1.16587 0.977935 1.15913 0.99083 1.00915 1.03413 1.00927 0.996996 1.02173 1.00954 1.00962 1.022 1.14697 0.996981 1.16577 1.03439 1.17202 1.02794 1.17179 0.996785 1.01557 1.1721 1.0654 1.17807 0.971947 1.15939 1.16554 0.978055 1.15941 1.00914 1.02831 1.17817 1.17194 1.17195 0.965494 1.04053 1.14711 0.984247 1.15297 0.984157 1.15944 1.04691 1.15334 1.15313 1.15324 0.990536 0.984405 1.1346 1.02172 1.12806 0.997042 1.14682 1.0656 1.00333 0.99057 1.13415 1.00918 1.14683 0.996923 1.15959 0.996728 1.0967 1.15928 1.00297 0.977943 1.02203 1.16545 1.00335 1.02212 1.05943 1.16545 0.990592 1.16547 1.17177 0.97833 1.17199 1.15324 0.971753 1.16566 0.990541 1.02801 1.15309 1.01567 1.17212 0.978089 1.05301 0.978175 0.971925 1.10326 0.990526 0.990819 1.04075 0.990768 1.09044 0.990598 1.07165 0.984487 0.971765 1.09068 1.04666 0.98461 1.02807 1.11552 1.07795 0.965426 1.00333 1.11586 0.984457 0.996858 1.10293 1.10918 0.971898 1.00935 1.09084 1.09674 1.02205 0.984245 1.07797 1.09058 1.00303 0.978021 1.09691 1.10337 1.02212 1.03454 0.953091 1.04062 1.08439 1.01585 0.99665 1.0969 1.12799 0.971772 1.00947 1.12171 1.00337 1.02821 1.12207 1.00932 0.965756 1.10949 1.13434 0.984276 1.12807 0.997121 0.971647 1.11585 0.990732 0.984322 1.12203 0.977897 0.978138 0.984429 0.940479 0.903024 0.909355 0.996766 0.909618 0.915642 0.928173 0.934183 0.934333 0.940574 0.946693 0.93432 0.953137 0.959242 0.953208 0.953246 1.10943 0.88439 0.89039 0.978334 0.921734 0.959503 0.990751 0.922004 1.10946 0.971762 1.10332 0.977911 1.00309 1.1221 1.02176 0.934162 0.87835 1.10322 0.953007 0.940833 0.972024 0.89064 1.10924 1.00295 0.903169 0.959596 1.08415 0.978215 0.965721 1.04709 0.946668 0.971835 1.05932 0.91551 0.959427 0.946886 1.07796 0.965675 1.07164 0.95945 0.928219 0.965598 1.05926 0.953052 0.940638 0.94681 1.02809 0.940755 0.965705 0.953298 1.04074 0.977965 0.959204 0.921916 1.00303 0.95298 0.978126 0.959508 0.959498 1.05303 0.946702 0.928323 0.959323 0.953263 1.02163 0.946968 0.978287 1.03432 0.940485 0.940479 0.984378 1.09078 0.915676 0.909215 0.971991 0.896831 1.07826 1.00311 0.934524 0.946735 1.10916 0.997106 1.10336 0.915704 1.10303 1.1029 1.10318 0.965446 0.927995 1.09664 1.09695 1.09676 1.09076 0.971824 1.09062 0.921941 1.09067 1.07792 0.946754 1.07194 0.946667 1.08449 1.06567 1.09669 1.07791 0.971696 1.08434 0.959215 1.04682 1.08439 1.06582 0.965449 1.07825 1.0717 0.953245 1.05333 0.996765 1.07821 0.915407 1.07163 1.03428 0.978213 1.09058 1.05301 0.890399 1.04672 0.990453 1.05936 1.09706 1.06547 1.05933 0.965434 0.978147 1.05333 1.05915 1.05313 1.04691 0.909369 1.04087 0.990865 1.07189 1.02808 1.14083 1.05957 1.12825 0.96584 1.15914 1.15315 0.984322 1.14706 1.13428 1.0031 1.03433 0.959477 1.11564 1.00922 1.04686 0.965439 0.997103 1.1279 1.03413 1.14044 1.00324 0.952994 1.11573 1.03434 0.996673 1.15302 0.934496 1.08427 1.0094 1.14681 1.05913 1.14067 0.959593 1.1532 1.01566 1.04697 1.1593 1.06562 0.971903 1.1342 1.05921 1.12165 1.06553 1.14679 1.04067 1.14666 1.1408 0.990843 1.01561 1.01558 1.11558 0.953118 1.028 1.10943 1.03455 0.959354 1.04042 1.02202 1.10306 0.953196 1.03458 1.10933 1.04667 1.00917 1.07199 0.965529 1.06542 1.04706 1.04664 1.05943 1.1155 1.05934 1.05306 0.903124 1.05322 1.05298 1.02795 1.12177 0.952886 1.07199 0.971809 1.02791 1.12208 0.952979 0.990396 1.04667 1.09079 1.00312 0.940741 1.02207 1.00295 1.05915 0.915423 1.02816 1.0221 0.965852 1.04038 1.07187 1.01577 1.05917 0.934591 1.04068 1.04055 1.02789 1.08435 1.04671 0.946769 1.03452 1.0405 1.03416 1.10928 1.12818 1.02194 0.996646 0.928272 1.12823 1.03432 0.928302 1.13438 1.0221 1.14076 1.01584 0.921785 1.12207 1.09704 1.01555 1.09052 1.04695 1.10303 1.12813 1.09055 1.08434 1.03439 1.10294 1.05913 1.10298 1.05302 1.12195 1.1217 1.10942 1.07821 1.11561 1.01578 1.10296 1.05305 1.11578 1.09677 1.02792 1.07837 1.08423 1.05933 1.05917 1.1155 1.07182 1.07813 1.03461 1.02793 1.07812 1.11562 1.09692 1.09055 1.10311 1.07828 1.00323 1.08413 1.09705 1.09055 1.04058 1.04671 1.12801 1.12184 1.13454 1.0406 1.13419 1.10944 1.11584 1.06573 1.12827 0.996833 1.12812 1.12832 1.05337 1.02211 1.13456 1.02195 1.11569 1.122 1.07836 0.978144 1.14067 1.09707 0.965765 1.07212 1.11574 1.12164 1.09663 1.03451 1.10952 1.08415 1.09709 1.10961 1.10957 0.98446 1.08439 0.909501 1.09705 1.00304 1.09693 1.10295 1.10304 1.02803 1.07795 1.06565 0.872083 1.07822 0.934402 1.07189 1.0221 1.06571 0.946926 1.06571 0.909297 1.05946 0.915869 1.0845 1.02799 0.915409 1.06546 0.921716 1.0655 0.984554 1.05962 0.940784 1.04704 1.05961 1.05304 1.01573 1.02208 0.927951 1.03456 1.04054 1.05325 0.996922 0.93449 0.928223 1.07816 1.04085 1.00316 1.05916 0.853033 1.05337 0.909342 1.09053 0.990504 1.10309 0.840795 1.08419 1.07819 1.07207 1.08448 1.09054 0.953091 1.0843 0.915591 1.09057 1.07811 0.99072 1.09054 1.07183 1.07174 0.940687 1.05932 1.06542 1.04084 0.928238 1.07164 0.94692 1.05962 0.965554 1.07809 1.07175 1.07205 0.96539 1.07796 1.05953 1.06578 0.952876 0.971805 1.05919 1.15323 1.00954 0.890717 1.15938 1.13413 1.09671 0.990389 0.965805 1.14663 1.13444 1.14077 0.971808 1.14058 0.865508 1.147 0.977988 1.11549 1.12171 0.897086 1.14064 1.00329 1.12788 1.12208 1.01559 1.14078 0.946756 1.11573 1.10955 0.984513 1.00311 1.10936 1.10956 1.1219 1.11545 1.11546 1.11543 1.00919 0.971715 1.09702 1.14087 1.12807 1.01564 1.13445 0.959272 1.1342 1.16573 1.17791 1.02826 1.10929 1.19708 1.09086 1.19702 0.996994 1.07195 0.965672 1.13459 1.14663 1.10929 0.940777 1.09042 1.12821 1.19708 0.89698 1.08438 1.06587 0.959197 1.0783 1.06585 0.928283 1.10319 0.934363 1.11551 1.09696 1.08434 0.928214 0.947038 0.884577 0.940618 1.0844 1.09053 0.952929 0.928107 0.934332 1.10314 1.09697 0.921676 0.846995 0.959159 1.12825 1.0907 0.902912 0.934166 0.903108 1.07797 0.984425 1.07175 0.92201 1.07817 0.922038 0.89671 1.06559 0.928153 1.04677 1.07166 0.865691 1.08455 0.921831 1.05914 1.06582 1.0657 0.965746 1.06576 1.10322 0.834414 0.946717 1.07167 0.81584 1.07818 1.10302 0.965743 1.08445 1.09693 1.1221 0.828152 0.971828 1.0905 1.09085 0.946922 1.10944 1.04041 0.990459 0.859232 1.0592 1.07212 0.922027 1.103 1.05336 0.972114 1.04086 0.878285 1.07817 0.940441 1.04701 0.903333 0.921643 1.04664 0.802955 1.10301 0.971648 0.947062 1.04082 1.04046 0.790819 1.01566 0.98433 1.05933 0.953158 1.02198 1.04049 0.978003 1.01581 1.02826 0.784436 1.01539 0.953253 1.01574 0.946851 1.0344 1.05309 1.04673 1.04682 0.93423 1.03444 1.00916 1.02807 1.02827 0.715469 1.03437 0.997095 0.990742 1.00288 0.740718 1.0031 0.909609 0.984486 0.740651 0.915745 0.990638 0.896825 0.990765 0.959476 0.978029 1.00303 0.978308 1.0095 1.02814 1.0157 0.990752 0.859484 1.00918 1.003 1.01545 1.00327 1.03419 1.0467 0.902945 1.03416 1.04079 0.928144 1.05295 0.834532 1.03455 1.00943 1.05315 1.04078 1.0407 0.896751 0.852886 1.02805 1.04067 1.03445 0.915604 1.04677 1.02163 1.02833 1.02184 0.940855 0.746911 1.02182 1.00937 0.915609 1.01556 1.04045 1.06555 1.02172 1.02212 1.02201 1.02173 1.04071 0.984289 1.05325 1.07173 0.996861 0.996695 0.965816 1.01569 0.984221 0.98414 1.02805 0.978111 0.978274 0.902978 0.909388 1.00925 1.02201 0.996725 0.953157 1.04696 1.02201 0.997084 0.997044 1.05301 0.990715 0.934586 1.07788 0.965811 0.871772 1.05943 0.984361 1.10327 0.984473 0.978342 1.08433 1.00925 0.88413 0.996876 1.08454 0.909143 0.971976 1.06558 1.00318 0.959415 1.00922 1.07817 0.965551 0.984301 1.05954 0.92196 0.978015 1.09049 0.940669 1.07195 0.965391 0.940465 0.959526 1.10927 0.965825 0.959543 1.09672 0.959507 1.00929 0.915811 0.971934 1.02809 0.953148 0.884424 0.978323 1.04058 0.972034 0.959354 1.02788 1.02169 1.02811 1.01582 0.990428 1.00308 1.0467 0.921767 0.990445 0.996958 1.00305 1.01547 1.01574 0.853349 1.03441 0.997095 0.978344 1.0093 1.07804 0.821816 1.0092 1.05327 0.98415 0.871985 0.978161 1.04676 0.990499 1.04044 0.940489 0.878333 1.05291 0.971693 0.909567 0.972026 1.04687 0.971969 0.803163 1.00302 0.990739 1.05929 0.953102 1.06574 0.984589 1.09668 0.984512 1.0656 1.09084 1.05942 1.05305 1.11577 1.02812 1.04699 1.09668 1.05914 1.0529 1.03449 0.728221 1.04684 1.07188 1.03444 1.04703 1.04051 1.04697 1.0532 1.09083 1.0346 1.10302 0.822012 1.04077 0.890483 1.02788 1.00938 1.10324 1.01549 1.1092 1.05925 1.04664 1.02165 1.00313 1.00958 0.815661 1.05292 1.0782 1.03424 1.00315 0.828292 1.04076 1.0595 0.877903 1.05335 1.03448 1.08415 1.04061 1.05289 1.08428 0.971928 1.02798 1.00946 1.06541 1.0217 1.05327 1.01558 1.01562 1.0407 1.05935 1.02202 1.0283 1.05334 1.05302 1.03413 1.0033 0.971718 1.07202 1.02195 1.04678 0.990431 0.990418 1.02798 1.06544 0.996703 1.0094 1.01561 1.03423 1.03427 1.02799 1.01586 0.996706 1.00293 1.04677 1.0154 0.990384 1.05938 0.997112 0.984506 0.997041 1.00331 1.0092 1.07183 0.996769 1.00307 1.00933 1.0531 0.996653 1.00322 1.07804 1.00914 1.00957 0.978294 0.984243 1.05327 0.971675 0.990527 1.00924 1.06566 0.971772 1.00922 1.04068 1.04059 1.02788 1.09061 1.02809 1.00959 1.02811 0.990771 1.07822 0.98458 0.99047 0.984348 1.08456 1.0406 1.02175 1.01586 0.996705 1.10308 0.977977 0.984168 1.00303 1.07837 0.965861 0.990504 0.996906 0.990538 1.08454 0.959547 1.02168 0.971633 0.934573 1.06556 0.997091 0.940683 1.10913 0.965728 0.959625 0.984262 1.09708 1.07202 0.965436 1.06563 1.00316 1.0844 0.990813 1.07788 0.990828 1.08432 0.978203 1.10315 0.990389 1.0906 0.940707 1.0906 0.846855 0.946675 1.09702 1.00925 1.09056 1.01574 1.10301 0.996692 0.872025 1.12204 1.00925 1.09703 1.00333 0.99066 1.0969 0.971928 1.09069 0.996728 1.11566 1.01576 0.878023 0.959501 1.11545 0.890645 0.996989 0.98433 1.12789 1.11544 0.903078 0.978321 0.978299 0.896948 1.12212 0.965434 0.88431 1.03416 1.12201 1.01574 0.884385 1.00934 1.12189 0.990554 0.934244 1.14071 0.984601 1.13427 1.00924 0.928249 1.1344 0.959558 0.959151 0.884264 1.07182 0.965541 0.953245 1.07209 0.978354 0.922028 1.00306 1.09694 0.953102 0.921731 0.971844 1.08437 0.965849 0.909263 0.953341 1.09086 1.00312 0.927961 0.946719 0.977896 0.94706 1.10312 0.997017 0.959413 0.859572 1.12804 0.959315 0.89087 1.02822 1.11568 0.940849 0.896914 1.01587 0.934282 1.10932 0.997109 1.00955 0.859187 1.1094 0.965779 0.902963 1.04075 0.878219 1.10296 0.928116 0.846867 0.971974 1.09709 1.03452 0.865841 0.971892 1.10919 1.01555 0.903007 1.10952 0.896801 1.11543 0.909349 0.952953 0.996814 0.909581 1.11575 0.921759 0.996857 0.87833 0.984621 1.12174 0.971842 1.13436 0.98432 0.934232 1.10948 0.978071 0.990676 1.11577 1.12187 1.13437 0.984294 0.928226 1.12193 0.940721 0.959603 1.13423 0.921825 0.915689 1.12821 1.14066 0.928188 1.13419 0.959469 1.14688 0.928339 0.827887 0.959517 1.14051 1.14059 0.840838 1.1471 0.953101 1.14082 0.86544 1.14676 0.934243 1.14689 0.947098 1.1342 1.15307 1.14038 0.934601 0.915584 1.15942 1.14682 0.915722 1.1467 1.14687 0.877935 0.896839 1.15308 0.909595 1.14702 0.87829 0.921956 0.884294 1.15334 0.909292 1.15333 0.947029 0.89085 1.11587 0.940507 1.10332 0.965627 0.897039 1.09671 0.934459 0.922109 0.922072 1.09052 0.97169 1.10936 0.927918 0.996645 1.13429 1.12798 0.978246 0.978118 1.10332 0.940781 0.871761 0.972051 0.902942 1.10951 0.897015 0.934306 1.10936 0.840706 1.12831 0.871788 1.12183 0.934574 0.86566 0.90927 1.12834 0.965511 1.12819 0.872027 1.13432 0.921935 1.14066 0.971664 1.13456 1.14073 0.903178 0.928048 1.1404 0.896752 1.12827 0.984175 1.1405 1.04701 1.13415 0.959528 0.834209 1.04038 1.13448 1.1404 0.940462 1.14687 1.04076 0.846662 0.946741 1.11567 1.12794 1.05336 1.12168 0.953117 0.828309 1.1219 1.12211 1.06586 1.12195 0.840708 0.928301 1.11557 1.1281 0.834416 1.1343 1.04674 1.12799 0.822089 0.921757 1.12822 1.12823 1.13418 0.834279 1.15334 0.940692 1.00328 0.852996 1.14064 1.13435 0.94665 1.14045 1.00953 1.1407 0.821989 1.14673 0.896655 1.14681 0.859609 1.14697 0.915613 1.14704 1.14671 1.02163 1.15294 0.9344 1.15297 1.15288 1.14062 1.02169 1.14707 0.897111 1.00943 0.965671 1.13456 0.834275 1.0779 0.95293 1.14702 0.827925 0.953341 1.15314 1.05956 1.14062 0.990456 1.15325 1.07188 1.15926 0.890393 1.15301 1.07191 0.953166 0.853226 1.15939 1.06587 1.15958 0.978039 1.16566 1.06552 0.834374 0.896848 1.16542 1.14711 1.15937 0.909431 1.15926 1.01561 1.17196 1.16562 0.840392 1.04081 0.928355 1.17187 1.04053 1.17199 0.846755 0.940679 1.15913 1.15945 1.05925 0.909399 1.15944 0.871893 1.15325 1.15944 0.965558 1.1656 0.934213 1.16556 1.02832 1.1529 0.872017 1.15959 0.940848 1.16582 0.990477 1.15923 0.903252 0.972048 1.16556 0.984602 1.16555 0.946634 0.896651 0.97183 1.16562 1.17816 0.921762 1.17176 0.978038 0.878041 0.959149 1.17168 1.16541 1.17186 0.965851 1.00292 0.859221 1.16579 1.17173 1.17794 0.915499 0.921928 1.17808 1.00336 0.934231 0.928142 0.990809 0.909521 0.909299 0.959299 0.88445 0.897042 0.934458 0.890467 0.890504 0.934156 0.846843 0.915425 0.859586 0.859232 0.959167 0.915645 0.9158 0.909326 