# vtk DataFile Version 3.0
vtk output
ASCII
DATASET UNSTRUCTURED_GRID
POINTS 44489 float
0.00950217 0 0
0.0209636 0 0
0.019303 0.0140728 0
0.017093 0.0149692 0
0.0106171 0.0112258 0
0.00950217 0 0
0 0 0
0.00950217 0 0
0.0106171 0.0112258 0
0 0.0153758 0
0 0 0
0 0.0153758 0
0.0106171 0.0112258 0
0.017093 0.0149692 0
0.0143902 0.0237479 0
0.013905 0.0239038 0
0 0.0188169 0
0 0.0153758 0
0.019303 0.0140728 0
0.0209636 0 0
0.0288707 0 0
0.0304002 0.0121687 0
0.0249936 0.0149314 0
0.019303 0.0140728 0
0.0152461 0.0406063 0
0.00830395 0.0324252 0
0.013905 0.0239038 0
0.0143902 0.0237479 0
0.0211572 0.0292462 0
0.0209492 0.0368331 0
0.0164739 0.0405477 0
0.0152461 0.0406063 0
0.442989 0.427134 0
0.445054 0.416657 0
0.455812 0.417698 0
0.45895 0.427017 0
0.453124 0.431821 0
0.442989 0.427134 0
0 0.0188169 0
0.013905 0.0239038 0
0.00830395 0.0324252 0
0 0.0335889 0
0 0.0188169 0
0.0249936 0.0149314 0
0.0304002 0.0121687 0
0.0369064 0.0139394 0
0.0364117 0.0241705 0
0.032793 0.0269444 0
0.0273389 0.0257858 0
0.0249936 0.0149314 0
0.87752 0.375707 0
0.882401 0.371375 0
0.886174 0.371071 0
0.891235 0.375543 0
0.891378 0.383599 0
0.879172 0.384806 0
0.87752 0.375707 0
0.0209492 0.0368331 0
0.0211572 0.0292462 0
0.0273389 0.0257858 0
0.032793 0.0269444 0
0.0342886 0.0363525 0
0.0266326 0.0388153 0
0.0209492 0.0368331 0
0.453124 0.431821 0
0.45895 0.427017 0
0.465373 0.42808 0
0.468147 0.436574 0
0.461264 0.443227 0
0.453179 0.43878 0
0.453124 0.431821 0
0.475703 0.918458 0
0.477837 0.919008 0
0.483129 0.933382 0
0.467047 0.93277 0
0.465524 0.930412 0
0.471845 0.919617 0
0.475703 0.918458 0
0.0143902 0.0237479 0
0.017093 0.0149692 0
0.019303 0.0140728 0
0.0249936 0.0149314 0
0.0273389 0.0257858 0
0.0211572 0.0292462 0
0.0143902 0.0237479 0
0.882577 0.396498 0
0.87769 0.387668 0
0.879172 0.384806 0
0.891378 0.383599 0
0.894201 0.387057 0
0.891397 0.394489 0
0.882577 0.396498 0
0.0288707 0 0
0.0417307 0 0
0.0381075 0.0133056 0
0.0369064 0.0139394 0
0.0304002 0.0121687 0
0.0288707 0 0
0.483767 0.91685 0
0.493773 0.921544 0
0.495171 0.924627 0
0.484288 0.934556 0
0.483129 0.933382 0
0.477837 0.919008 0
0.483767 0.91685 0
0.476569 0.40402 0
0.4839 0.399631 0
0.49129 0.404685 0
0.491317 0.410304 0
0.484469 0.416043 0
0.476513 0.411393 0
0.476569 0.40402 0
0.0381075 0.0133056 0
0.0417307 0 0
0.0486255 0 0
0.0495491 0.0157086 0
0.0381075 0.0133056 0
0.470003 0.423636 0
0.469749 0.415716 0
0.476513 0.411393 0
0.484469 0.416043 0
0.484954 0.422897 0
0.480654 0.426769 0
0.470003 0.423636 0
0.891235 0.375543 0
0.900399 0.372748 0
0.905632 0.377743 0
0.900955 0.386612 0
0.894201 0.387057 0
0.891378 0.383599 0
0.891235 0.375543 0
0.461204 0.411053 0
0.460693 0.408457 0
0.468597 0.399068 0
0.476569 0.40402 0
0.476513 0.411393 0
0.469749 0.415716 0
0.461204 0.411053 0
0.0486255 0 0
0.0562746 0 0
0.059143 0.0128445 0
0.0548743 0.0160407 0
0.0498832 0.0160065 0
0.0495491 0.0157086 0
0.0486255 0 0
0.484288 0.934556 0
0.495171 0.924627 0
0.49831 0.926116 0
0.502142 0.937752 0
0.499991 0.939761 0
0.48665 0.938574 0
0.484529 0.936939 0
0.484288 0.934556 0
0.0548743 0.0160407 0
0.059143 0.0128445 0
0.0644525 0.0131939 0
0.069297 0.0181588 0
0.0680269 0.0232398 0
0.0599403 0.0275003 0
0.0548743 0.0160407 0
0.0562746 0 0
0.0712431 0 0
0.0712586 0.000591215 0
0.0644525 0.0131939 0
0.059143 0.0128445 0
0.0562746 0 0
0.86611 0.40733 0
0.865784 0.406577 0
0.869414 0.400579 0
0.880918 0.400317 0
0.883167 0.406499 0
0.878373 0.413477 0
0.86611 0.40733 0
0.49129 0.404685 0
0.498968 0.399442 0
0.505863 0.40378 0
0.50588 0.412401 0
0.499819 0.415778 0
0.491317 0.410304 0
0.49129 0.404685 0
0.0364117 0.0241705 0
0.0369064 0.0139394 0
0.0381075 0.0133056 0
0.0495491 0.0157086 0
0.0498832 0.0160065 0
0.0465844 0.0268316 0
0.0459385 0.0270886 0
0.0364117 0.0241705 0
0.868744 0.38929 0
0.87769 0.387668 0
0.882577 0.396498 0
0.880918 0.400317 0
0.869414 0.400579 0
0.866946 0.391766 0
0.868744 0.38929 0
0.484469 0.416043 0
0.491317 0.410304 0
0.499819 0.415778 0
0.498445 0.423932 0
0.494034 0.426325 0
0.484954 0.422897 0
0.484469 0.416043 0
0.032793 0.0269444 0
0.0364117 0.0241705 0
0.0459385 0.0270886 0
0.0413362 0.039536 0
0.0398375 0.0397433 0
0.0342886 0.0363525 0
0.032793 0.0269444 0
0.384606 0.941843 0
0.386613 0.940064 0
0.39307 0.93891 0
0.401004 0.950087 0
0.399988 0.952303 0
0.388546 0.95383 0
0.384606 0.941843 0
0.900955 0.386612 0
0.906889 0.393238 0
0.90519 0.398254 0
0.895712 0.400166 0
0.891397 0.394489 0
0.894201 0.387057 0
0.900955 0.386612 0
0.0413362 0.039536 0
0.0459385 0.0270886 0
0.0465844 0.0268316 0
0.0557776 0.0318042 0
0.0524111 0.0404576 0
0.0471889 0.0421734 0
0.0413362 0.039536 0
0.895712 0.400166 0
0.90519 0.398254 0
0.909247 0.405291 0
0.903161 0.411812 0
0.893025 0.409637 0
0.892803 0.409215 0
0.895712 0.400166 0
0.0465844 0.0268316 0
0.0498832 0.0160065 0
0.0548743 0.0160407 0
0.0599403 0.0275003 0
0.0586568 0.0305828 0
0.0557776 0.0318042 0
0.0465844 0.0268316 0
0.465373 0.42808 0
0.470003 0.423636 0
0.480654 0.426769 0
0.480493 0.435507 0
0.475588 0.439008 0
0.468147 0.436574 0
0.465373 0.42808 0
0.00936186 0.0443885 0
0.0152461 0.0406063 0
0.0164739 0.0405477 0
0.0229037 0.054327 0
0.022307 0.0548705 0
0.0122109 0.0566597 0
0.00936186 0.0443885 0
0.880918 0.400317 0
0.882577 0.396498 0
0.891397 0.394489 0
0.895712 0.400166 0
0.892803 0.409215 0
0.883167 0.406499 0
0.880918 0.400317 0
0.398968 0.931766 0
0.402364 0.931607 0
0.408599 0.946033 0
0.401004 0.950087 0
0.39307 0.93891 0
0.398968 0.931766 0
0.905632 0.377743 0
0.910156 0.377028 0
0.91566 0.385623 0
0.912215 0.391576 0
0.906889 0.393238 0
0.900955 0.386612 0
0.905632 0.377743 0
0 0.0335889 0
0.00830395 0.0324252 0
0.0152461 0.0406063 0
0.00936186 0.0443885 0
0 0.0436905 0
0 0.0335889 0
0.480654 0.426769 0
0.484954 0.422897 0
0.494034 0.426325 0
0.493125 0.437338 0
0.490045 0.439468 0
0.480493 0.435507 0
0.480654 0.426769 0
0.0209492 0.0368331 0
0.0266326 0.0388153 0
0.0288657 0.0519217 0
0.026844 0.0537101 0
0.0229037 0.054327 0
0.0164739 0.0405477 0
0.0209492 0.0368331 0
0.910156 0.377028 0
0.914341 0.371186 0
0.918828 0.370525 0
0.925012 0.377352 0
0.922264 0.384705 0
0.91566 0.385623 0
0.910156 0.377028 0
0.0288657 0.0519217 0
0.0266326 0.0388153 0
0.0342886 0.0363525 0
0.0398375 0.0397433 0
0.0350556 0.0503766 0
0.0288657 0.0519217 0
0.399988 0.952303 0
0.402353 0.958077 0
0.396457 0.966633 0
0.393332 0.967755 0
0.385702 0.957665 0
0.388546 0.95383 0
0.399988 0.952303 0
0.922264 0.384705 0
0.925012 0.377352 0
0.931475 0.376183 0
0.937451 0.384001 0
0.930286 0.391589 0
0.928239 0.391621 0
0.922264 0.384705 0
0.381405 0.441367 0
0.390533 0.443167 0
0.393013 0.452148 0
0.391967 0.454383 0
0.381383 0.456122 0
0.376722 0.448513 0
0.381405 0.441367 0
0.0113562 0.0662594 0
0.011622 0.0572138 0
0.0122109 0.0566597 0
0.022307 0.0548705 0
0.0219253 0.0673076 0
0.0153753 0.0702472 0
0.0113562 0.0662594 0
0.906889 0.393238 0
0.912215 0.391576 0
0.921348 0.400715 0
0.921328 0.401439 0
0.914593 0.406439 0
0.909247 0.405291 0
0.90519 0.398254 0
0.906889 0.393238 0
0.384606 0.941843 0
0.388546 0.95383 0
0.385702 0.957665 0
0.378583 0.958745 0
0.375385 0.945084 0
0.378387 0.942431 0
0.384606 0.941843 0
0.393013 0.452148 0
0.404889 0.449808 0
0.408501 0.454284 0
0.405523 0.46344 0
0.395125 0.463149 0
0.391967 0.454383 0
0.393013 0.452148 0
0 0.0436905 0
0.00936186 0.0443885 0
0.0122109 0.0566597 0
0.011622 0.0572138 0
0 0.0559206 0
0 0.0436905 0
0.91566 0.385623 0
0.922264 0.384705 0
0.928239 0.391621 0
0.921348 0.400715 0
0.912215 0.391576 0
0.91566 0.385623 0
0.390533 0.443167 0
0.395595 0.437023 0
0.406422 0.440674 0
0.404889 0.449808 0
0.393013 0.452148 0
0.390533 0.443167 0
0 0.0559206 0
0.011622 0.0572138 0
0.0113562 0.0662594 0
0 0.0703455 0
0 0.0559206 0
0.401004 0.950087 0
0.408599 0.946033 0
0.411612 0.946312 0
0.416295 0.958908 0
0.413532 0.961067 0
0.402353 0.958077 0
0.399988 0.952303 0
0.401004 0.950087 0
0.921348 0.400715 0
0.928239 0.391621 0
0.930286 0.391589 0
0.937815 0.401076 0
0.937734 0.401453 0
0.932046 0.406196 0
0.928896 0.406731 0
0.921328 0.401439 0
0.921348 0.400715 0
0.37841 0.462936 0
0.381383 0.456122 0
0.391967 0.454383 0
0.395125 0.463149 0
0.392447 0.467943 0
0.381027 0.467253 0
0.37841 0.462936 0
0.0219253 0.0673076 0
0.022307 0.0548705 0
0.0229037 0.054327 0
0.026844 0.0537101 0
0.0335569 0.0639901 0
0.0296688 0.0711685 0
0.0219253 0.0673076 0
0.395125 0.463149 0
0.405523 0.46344 0
0.409224 0.468834 0
0.408898 0.472139 0
0.401524 0.476961 0
0.394494 0.47407 0
0.392447 0.467943 0
0.395125 0.463149 0
0.883167 0.406499 0
0.892803 0.409215 0
0.893025 0.409637 0
0.890669 0.420088 0
0.888759 0.4214 0
0.878884 0.418003 0
0.878373 0.413477 0
0.883167 0.406499 0
0.416148 0.942458 0
0.423647 0.943304 0
0.427483 0.948861 0
0.418169 0.958927 0
0.416295 0.958908 0
0.411612 0.946312 0
0.416148 0.942458 0
0.406422 0.440674 0
0.40881 0.439161 0
0.418348 0.442861 0
0.419634 0.45314 0
0.419442 0.453416 0
0.408501 0.454284 0
0.404889 0.449808 0
0.406422 0.440674 0
0.893025 0.409637 0
0.903161 0.411812 0
0.906124 0.421751 0
0.902676 0.424138 0
0.890669 0.420088 0
0.893025 0.409637 0
0.0398375 0.0397433 0
0.0413362 0.039536 0
0.0471889 0.0421734 0
0.047121 0.053461 0
0.0425791 0.0556132 0
0.0350556 0.0503766 0
0.0398375 0.0397433 0
0.407537 0.928216 0
0.414139 0.930174 0
0.416148 0.942458 0
0.411612 0.946312 0
0.408599 0.946033 0
0.402364 0.931607 0
0.407537 0.928216 0
0.873818 0.426981 0
0.873534 0.423368 0
0.878884 0.418003 0
0.888759 0.4214 0
0.887702 0.429995 0
0.88214 0.432899 0
0.873818 0.426981 0
0.418348 0.442861 0
0.424892 0.437418 0
0.432559 0.441535 0
0.432393 0.451277 0
0.419634 0.45314 0
0.418348 0.442861 0
0.0471889 0.0421734 0
0.0524111 0.0404576 0
0.0586459 0.0453333 0
0.0579885 0.0526243 0
0.052863 0.0554858 0
0.047121 0.053461 0
0.0471889 0.0421734 0
0.873818 0.426981 0
0.88214 0.432899 0
0.880432 0.441028 0
0.875006 0.443702 0
0.87138 0.442725 0
0.867853 0.433401 0
0.873818 0.426981 0
0.408501 0.454284 0
0.419442 0.453416 0
0.421238 0.463437 0
[...]
CELL_DATA 6400
FIELD FieldData 3
weight 1 6400 float
 0.053098 0.0530303 0.0530944 0.0531534 0.0531872 0.0550943 0.0531246 0.0532423 0.0537744 0.053275 0.0550452 0.0507004 0.0531914 0.053736 0.0532092 0.050725 0.0551806 0.0532841 0.0551292 0.05369 0.0551742 0.0533354 0.050617 0.053439 0.0533948 0.0537461 0.0551842 0.0533169 0.0537838 0.0551369 0.0533403 0.0503707 0.0536244 0.0533977 0.0535683 0.0533938 0.0550737 0.0532555 0.0536639 0.0504566 0.0535904 0.0531678 0.0550756 0.0532947 0.0535419 0.0533416 0.0502227 0.0534436 0.0548484 0.0533096 0.0535015 0.050295 0.0548504 0.0532162 0.0534848 0.0549034 0.0532476 0.0502933 0.0533672 0.0547848 0.0533676 0.0547702 0.0536342 0.0503599 0.0549181 0.053535 0.0534081 0.0505013 0.0536143 0.0549516 0.0534707 0.0536295 0.0548524 0.0505361 0.0535465 0.0535105 0.0504913 0.0535192 0.0548846 0.05348 0.050285 0.0533766 0.053488 0.0534713 0.0502046 0.0533999 0.0546361 0.0533067 0.0535465 0.05472 0.0501159 0.0533887 0.0534709 0.0500143 0.0534031 0.0546912 0.0500615 0.0532948 0.053504 0.0500091 0.0546032 0.0531917 0.053574 0.0501586 0.0532851 0.0535744 0.04983 0.0546324 0.0535399 0.0497757 0.0532978 0.0547988 0.0498358 0.0535049 0.0547194 0.0532458 0.0536865 0.053159 0.0547426 0.0536472 0.0501275 0.0533394 0.0536187 0.0548257 0.053637 0.0532334 0.0500561 0.0546632 0.0537081 0.0546665 0.0532143 0.053742 0.0549055 0.0537865 0.053107 0.0500201 0.0549697 0.0531047 0.0537496 0.0530333 0.0549784 0.0538279 0.049866 0.0548391 0.0529851 0.0548459 0.0499882 0.0529029 0.0538435 0.0549134 0.0498771 0.0536352 0.0549438 0.0530122 0.0535866 0.0498903 0.0529337 0.0550118 0.0528386 0.0536817 0.0550043 0.0505816 0.0532659 0.0536331 0.0550048 0.0505878 0.0537237 0.053163 0.0548741 0.0537539 0.0503879 0.0530941 0.0549346 0.0538486 0.0530533 0.050258 0.0548742 0.0539093 0.050379 0.0549387 0.0538522 0.0531737 0.0538633 0.0504247 0.0537834 0.0547649 0.050613 0.0530015 0.0547768 0.0547646 0.0539391 0.050507 0.0530923 0.0546905 0.0529652 0.0539388 0.0546901 0.0528994 0.0548023 0.052788 0.0504858 0.0529256 0.054021 0.0547399 0.0528357 0.0504066 0.052734 0.054812 0.0532738 0.0527533 0.0503441 0.0533599 0.0547007 0.050363 0.0535131 0.0533981 0.0532729 0.0534235 0.0546622 0.0501118 0.0533265 0.0534208 0.0500236 0.0534198 0.0534079 0.0551365 0.053276 0.053435 0.0501925 0.0550862 0.0533148 0.0498842 0.0531644 0.0551253 0.0498731 0.0532988 0.0534427 0.0498615 0.0550767 0.0531801 0.0551165 0.0535287 0.0532039 0.0501552 0.0551652 0.0536056 0.0551678 0.0535696 0.0551365 0.0502015 0.0550659 0.0551164 0.0502687 0.0550954 0.0498655 0.0533939 0.0535189 0.0550535 0.0500025 0.0551305 0.0532762 0.0551651 0.0535001 0.0500553 0.0536499 0.0500414 0.053594 0.0551163 0.0532892 0.0533578 0.0534536 0.0533042 0.0534666 0.0533837 0.055156 0.053308 0.0546606 0.0534116 0.0534022 0.0546376 0.0533273 0.0551992 0.0552405 0.0534757 0.0531989 0.0545097 0.0552055 0.0535599 0.0531837 0.0545794 0.055305 0.0530932 0.0545561 0.0552686 0.0535072 0.0552759 0.0530647 0.0552457 0.0545938 0.0536523 0.0536286 0.0530133 0.0546289 0.0535563 0.0552037 0.0536486 0.0531563 0.0551907 0.0546334 0.0536713 0.0552775 0.0530543 0.0545106 0.0537244 0.0552634 0.0529738 0.054551 0.0537998 0.0552412 0.0545569 0.0550404 0.0529123 0.0537552 0.0550687 0.053713 0.0550219 0.0544334 0.0530793 0.0550641 0.0538414 0.0544748 0.0551073 0.0530486 0.053791 0.0543979 0.0550942 0.0529648 0.0550479 0.0538856 0.0549976 0.0539538 0.0543801 0.0530704 0.05502 0.0540431 0.0542964 0.0549874 0.0529531 0.0539612 0.0549745 0.054302 0.0528424 0.0539124 0.05502 0.0543379 0.0540327 0.0529107 0.0550689 0.0544293 0.0528022 0.05375 0.0550276 0.0544561 0.052668 0.0551582 0.0538464 0.0543441 0.052774 0.0551423 0.0538501 0.0543759 0.0551333 0.052799 0.0537867 0.0542824 0.0528821 0.0552072 0.0537143 0.0545441 0.0527152 0.0552355 0.0544814 0.053724 0.0526348 0.0551931 0.0538809 0.0545615 0.0529657 0.0551967 0.0550792 0.0528671 0.0544704 0.0539289 0.0550488 0.0527591 0.054467 0.0540433 0.0551763 0.0528956 0.054397 0.0551389 0.0539936 0.0551097 0.0528288 0.0544984 0.0539305 0.0526765 0.0540036 0.0545148 0.0527687 0.054404 0.0540584 0.0527112 0.0544163 0.0525014 0.0539045 0.0543856 0.0526354 0.0538325 0.0543704 0.0525619 0.0538923 0.0539855 0.055134 0.052635 0.0539788 0.052482 0.0542902 0.0524329 0.0539601 0.0542843 0.052563 0.0543017 0.0543206 0.0553543 0.0540046 0.0540894 0.0522873 0.0543326 0.0540645 0.0542238 0.0540551 0.0523746 0.0553276 0.0541677 0.0542018 0.0524671 0.0553355 0.0541497 0.0541519 0.0553127 0.0542321 0.0542495 0.0542058 0.0541421 0.0542669 0.0540446 0.0539797 0.0542011 0.0541379 0.0553752 0.0540751 0.0542381 0.0525816 0.0540427 0.0553531 0.0540901 0.055378 0.0523488 0.0541035 0.0553299 0.0541411 0.0541765 0.052298 0.0542431 0.055294 0.0541595 0.0522104 0.0553196 0.0542462 0.0553585 0.0542036 0.0542912 0.0553362 0.0553415 0.0542068 0.0524613 0.0542566 0.052403 0.0542869 0.0541834 0.0525804 0.055385 0.0540956 0.0543382 0.0542204 0.0540832 0.0526975 0.0542936 0.055416 0.052778 0.054039 0.0554001 0.0527305 0.0543599 0.0543635 0.0525202 0.0541328 0.0554432 0.0543219 0.0526105 0.0554269 0.0543067 0.0526707 0.0543997 0.0554552 0.0544197 0.0521429 0.0539905 0.0553683 0.0521791 0.0553843 0.0522771 0.0553892 0.0544904 0.0553618 0.0523403 0.0544759 0.0554185 0.0520479 0.0544523 0.0554234 0.0544998 0.0521926 0.0544315 0.055388 0.0524263 0.0539408 0.0545511 0.0524498 0.0552876 0.0543874 0.0525407 0.0552486 0.0540377 0.0543464 0.0552789 0.0553074 0.0538892 0.0525913 0.0553268 0.0544418 0.055322 0.0544482 0.0523184 0.0552894 0.0544049 0.0552546 0.0523731 0.0552177 0.0538436 0.0552188 0.0543995 0.0525281 0.0538287 0.0551875 0.0552574 0.0544995 0.0552892 0.0524908 0.054459 0.0540075 0.0545059 0.0539547 0.0545109 0.052845 0.0552307 0.0545732 0.0552719 0.0528901 0.0539726 0.054555 0.0553732 0.0539042 0.0553647 0.0546272 0.0529866 0.0553393 0.055333 0.0545674 0.0538447 0.0530375 0.0546332 0.0554009 0.0542022 0.0527864 0.0541325 0.055375 0.0528862 0.0552941 0.0528771 0.0541094 0.0552984 0.0540962 0.0530865 0.0552665 0.0541989 0.0542001 0.0552732 0.0542128 0.0532913 0.0540915 0.0553502 0.0541523 0.0540038 0.0531532 0.0540992 0.0553314 0.0529922 0.0542121 0.054107 0.0552916 0.0542876 0.0530645 0.0541093 0.0543443 0.0549458 0.054381 0.0531139 0.054913 0.0543161 0.0549631 0.0540545 0.0527272 0.0549256 0.0542688 0.0540193 0.0548616 0.0528177 0.0543496 0.054968 0.052615 0.0544228 0.05401 0.0550004 0.0526488 0.0541112 0.0549541 0.0527339 0.0548648 0.0528899 0.0548322 0.0529788 0.0549061 0.0539996 0.0541639 0.0548215 0.0529602 0.0547772 0.0542268 0.0528043 0.0549346 0.0548917 0.0538946 0.0548672 0.052819 0.0539121 0.0541265 0.0550687 0.0520812 0.054187 0.0549986 0.0521125 0.0542421 0.0519362 0.0538854 0.0542854 0.0542749 0.0519907 0.054396 0.0550598 0.0543299 0.0518737 0.0537873 0.0519863 0.0549911 0.0543356 0.0521051 0.0538161 0.0551431 0.0522623 0.0543663 0.0522463 0.055101 0.0539299 0.0544147 0.0550388 0.0524313 0.0549155 0.0538012 0.0521335 0.0544355 0.0549761 0.0523454 0.0545042 0.0548903 0.053911 0.0544624 0.052303 0.0549573 0.0545378 0.0550202 0.0537391 0.0549417 0.0545432 0.0546982 0.0547777 0.0546253 0.0547159 0.0546357 0.0546496 0.0538216 0.054793 0.0546929 0.0548409 0.0546264 0.0536947 0.0547287 0.0547782 0.0546687 0.0546029 0.0545784 0.0546648 0.0544765 0.0518016 0.0547474 0.054537 0.0517069 0.0545517 0.0546042 0.0518684 0.0545072 0.054732 0.0545151 0.0544724 0.054687 0.0519634 0.0545845 0.0544016 0.0546705 0.0517693 0.0544997 0.051597 0.0543646 0.0546396 0.0545791 0.0518514 0.0546215 0.0546205 0.0520178 0.0548445 0.054658 0.0544438 0.0547919 0.0521414 0.0547126 0.054866 0.0543578 0.0521144 0.0546681 0.0549286 0.0519004 0.0548149 0.0520115 0.0547911 0.0542852 0.0547457 0.0519506 0.0546845 0.0547015 0.054753 0.054445 0.0520522 0.0547869 0.0548276 0.0524754 0.0547551 0.0546977 0.0525665 0.0543852 0.0533468 0.0524228 0.0551822 0.0543352 0.0534323 0.0522836 0.0551342 0.0542455 0.0534796 0.0550826 0.052522 0.0535334 0.0551954 0.053371 0.0526818 0.0541964 0.0533684 0.0552023 0.0527002 0.0551648 0.054289 0.053428 0.0550557 0.0527819 0.0542476 0.0535278 0.0551148 0.0525895 0.0534953 0.054993 0.0526507 0.0550162 0.0535937 0.0542711 0.0527108 0.0550873 0.0541742 0.0536378 0.0522388 0.0542022 0.0551424 0.0535745 0.05507 0.0523431 0.0541588 0.0536346 0.0552255 0.0537084 0.0522215 0.0552338 0.052434 0.0537022 0.0540639 0.055173 0.0533572 0.0523598 0.0541874 0.0534274 0.0552487 0.0534605 0.0520726 0.0535163 0.055201 0.053557 0.0521915 0.0541083 0.0552314 0.0533644 0.0522354 0.0540927 0.0534005 0.0551219 0.0540988 0.0534791 0.0525284 0.055089 0.0540228 0.0535389 0.0551216 0.0526038 0.0535928 0.0551608 0.0525555 0.0551918 0.0536219 0.0542978 0.0523987 0.0537143 0.0551502 0.0542165 0.0524583 0.053602 0.0551042 0.0536574 0.0522997 0.0549619 0.0537562 0.0549169 0.0541705 0.052381 0.0537413 0.0548821 0.0541828 0.0538235 0.0533573 0.0550005 0.0540915 0.0537643 0.0550357 0.0539082 0.0549703 0.0534475 0.0538501 0.0549087 0.0540913 0.0532056 0.053774 0.0547619 0.0540833 0.0538466 0.0548493 0.0532263 0.0539164 0.0540789 0.0547694 0.0532935 0.0539567 0.0540147 0.053332 0.0546944 0.0548724 0.0534978 0.0540447 0.0540228 0.0548313 0.053522 0.054103 0.0539834 0.0547974 0.0540411 0.0536168 0.0550066 0.0534139 0.0539745 0.0550665 0.053974 0.0533366 0.0549458 0.0540815 0.0541072 0.0549773 0.0534598 0.0539939 0.0541188 0.0535759 0.0550644 0.0537929 0.0538378 0.055037 0.0530448 0.0539933 0.0539059 0.0550076 0.0531727 0.0539963 0.0549142 0.053813 0.0531833 0.0538928 0.0548491 0.0539122 0.0529387 0.0549468 0.0539803 0.0530416 0.0538938 0.0548854 0.0531218 0.0541153 0.0538817 0.0533344 0.054051 0.0548695 0.0537932 0.0532867 0.0540405 0.0534203 0.0554722 0.0539806 0.0539011 0.0534567 0.0538147 0.0554712 0.0541172 0.0531737 0.0537284 0.0554714 0.0533949 0.0532951 0.0555036 0.0533471 0.0536865 0.0554927 0.0535432 0.0540501 0.0554972 0.0537792 0.0534709 0.0539514 0.0554483 0.0533304 0.0539399 0.0533839 0.0554235 0.0538556 0.0539517 0.0534671 0.0554549 0.0537592 0.0536117 0.0555059 0.0536077 0.0538401 0.055482 0.0536709 0.0539927 0.0554742 0.053582 0.0537523 0.0539682 0.0554932 0.0536459 0.0535966 0.0555165 0.0536905 0.053542 0.0555117 0.0536613 0.0539265 0.0538642 0.0537212 0.0555187 0.0538683 0.0533032 0.0538602 0.0555304 0.053396 0.0539544 0.0534567 0.0537652 0.0539713 0.0555374 0.0534515 0.0537272 0.0555337 0.0538645 0.0533244 0.053831 0.0555143 0.0532786 0.0537847 0.0555003 0.053843 0.0555158 0.0537358 0.0533874 0.05373 0.0555261 0.0535847 0.0555256 0.0538743 0.0537027 0.0535255 0.0554167 0.0535042 0.0536688 0.05544 0.0535951 0.0537075 0.0536647 0.0553852 0.0533869 0.0554215 0.0536033 0.053596 0.0534823 0.0554549 0.0537306 0.0554585 0.053507 0.0535782 0.0554331 0.0537121 0.053668 0.0553606 0.0536241 0.0538306 0.0537508 0.0536306 0.0553132 0.0538969 0.0535203 0.0536104 0.0553915 0.0539694 0.053623 0.0553849 0.0534945 0.0539299 0.0538754 0.0553488 0.0528931 0.0554712 0.0538003 0.0528363 0.0538824 0.0554799 0.0539314 0.0554538 0.0529666 0.0537847 0.0540321 0.0554848 0.0537677 0.0541441 0.0530309 0.0541064 0.0554886 0.0527302 0.0540564 0.0554654 0.0536689 0.0528928 0.0539907 0.055416 0.0538115 0.0531538 0.0540932 0.0554396 0.0536771 0.055412 0.054172 0.0532773 0.0553915 0.0538152 0.0530143 0.0538021 0.0529247 0.0537512 0.0531056 0.0538724 0.0536879 0.0531085 0.0539512 0.0526361 0.053606 0.0537965 0.0528022 0.053687 0.0537236 0.0536057 0.052822 0.0535365 0.0538424 0.0527118 0.0535604 0.053898 0.0535418 0.0525241 0.0540146 0.0535675 0.0526801 0.0534265 0.0540904 0.052879 0.0535101 0.0539983 0.0529865 0.0534492 0.052997 0.0539609 0.0534953 0.0527852 0.0534586 0.054069 0.0527233 0.0541737 0.0534254 0.0529119 0.0554497 0.0541577 0.0554241 0.0534197 0.0533335 0.0542259 0.0533724 0.0533656 0.0553806 0.0543069 0.0534299 0.0533293 0.0553944 0.05419 0.053215 0.0555402 0.0542995 0.0537916 0.0532618 0.055536 0.054262 0.0532747 0.0537206 0.0543307 0.0534282 0.0555462 0.0543653 0.053695 0.0535385 0.0555472 0.0544426 0.0536182 0.0555492 0.0555292 0.0537464 0.0536372 0.05444 0.0555352 0.0538056 0.0543863 0.0533174 0.0555044 0.054475 0.0534597 0.0537339 0.0555282 0.0555292 0.0542436 0.0536876 0.0533996 0.0555408 0.0536288 0.0541821 0.053016 0.0555123 0.0543123 0.0536125 0.0531289 0.0555532 0.0542524 0.0534773 0.055547 0.0531509 0.0555543 0.0541825 0.0535805 0.0555546 0.0528721 0.0543266 0.0535253 0.0529289 0.0543934 0.055547 0.0544598 0.0530289 0.0555516 0.0533941 0.054538 0.0530519 0.0555428 0.053403 0.0545407 0.0555291 0.0531617 0.0533191 0.0543941 0.0555374 0.0532078 0.0535427 0.0555135 0.0544129 0.0532946 0.0535581 0.0555224 0.0544681 0.0534611 0.0534269 0.0555226 0.0545184 0.0533144 0.0533575 0.05553 0.0546056 0.0530813 0.0533559 0.0554852 0.0545104 0.0554739 0.0531897 0.0537824 0.0545369 0.0554999 0.0515337 0.0537044 0.0546902 0.0554839 0.0536615 0.0516756 0.0554701 0.0545951 0.0536589 0.0546668 0.0554481 0.0517216 0.0535267 0.054713 0.0513918 0.0554294 0.0536406 0.0546285 0.051481 0.0553934 0.0535874 0.0547343 0.0516239 0.0554411 0.0535694 0.0516069 0.0554221 0.054807 0.0554212 0.0534488 0.0517651 0.0547797 0.0554939 0.053523 0.0555076 0.0547642 0.0518272 0.0534396 0.0554645 0.0548357 0.0535143 0.0519416 0.0534086 0.0555146 0.0518843 0.0548682 0.0532974 0.0554908 0.051586 0.0546095 0.0533794 0.0554693 0.0516787 0.0547275 0.053234 0.0554504 0.05467 0.0517865 0.0554368 0.053462 0.051317 0.0545916 0.0534059 0.0553964 0.054653 0.0513023 0.053189 0.0547301 0.0514208 0.0533134 0.0554367 0.0547113 0.0514732 0.0533059 0.0547878 0.0511293 0.0553994 0.0532129 0.0512898 0.0548387 0.0512765 0.0552763 0.0531984 0.0548638 0.05154 0.0552632 0.0548064 0.0533106 0.0515698 0.0553069 0.0548394 0.0516998 0.0530387 0.0553363 0.0514024 0.0541757 0.0530973 0.055289 0.0552412 0.0542522 0.0514993 0.0532207 0.0552721 0.0542205 0.0515618 0.0532523 0.0552193 0.0543457 0.0531872 0.0520795 0.0551418 0.0542465 0.0530973 0.0521396 0.054295 0.0551219 0.0530829 0.0543326 0.0520147 0.0528892 0.055169 0.0543873 0.0552171 0.0518662 0.0529645 0.0551909 0.054468 0.0520317 0.0551625 0.0545308 0.0519768 0.0527815 0.0553632 0.0544106 0.052259 0.0553165 0.0527318 0.0544695 0.0522243 0.0528388 0.0552958 0.0529954 0.0541796 0.0524199 0.0553564 0.0528837 0.0542414 0.0553387 0.0523538 0.0529965 0.0543287 0.0553086 0.0528568 0.052071 0.0552427 0.0551831 0.0527389 0.0522198 0.0542011 0.0552687 0.0521915 0.0527247 0.0552069 0.054157 0.0518047 0.0542932 0.0552434 0.0527115 0.0518712 0.0544492 0.0550869 0.0532333 0.0545116 0.0518888 0.0550346 0.0530761 0.0545103 0.0516571 0.0551067 0.053135 0.0516255 0.0543838 0.0550571 0.0530032 0.0517554 0.0550664 0.0543564 0.0530868 0.0516906 0.0549794 0.0529308 0.0545064 0.0550005 0.0520659 0.0531251 0.0544434 0.0530843 0.0546459 0.0520156 0.053007 0.0518819 0.0548925 0.0545933 0.0530069 0.0518932 0.0547117 0.0549237 0.0528873 0.0511739 0.0545932 0.055009 0.0510231 0.0528169 0.0546446 0.0529343 0.0512574 0.0549412 0.0545732 0.0528756 0.0547065 0.0511097 0.0548929 0.0548264 0.0527909 0.0551278 0.0509724 0.0547651 0.0550912 0.0527382 0.0509051 0.0551819 0.0548861 0.0511179 0.0526883 0.0551483 0.054771 0.0510951 0.0527498 0.0551098 0.0547647 0.0528821 0.0513606 0.0550393 0.0548933 0.0549891 0.0527575 0.0513747 0.0549642 0.051213 0.0526986 0.0548916 0.0549301 0.0511081 0.055042 0.0548355 0.0526032 0.0512239 0.0549271 0.0545693 0.0546369 0.0512986 0.0549918 0.0525466 0.0547018 0.0506869 0.0553633 0.0546217 0.0508398 0.0553314 0.053607 0.0508203 0.0553724 0.0535041 0.0545546 0.0553332 0.0509655 0.0552856 0.0536006 0.0509236 0.0546825 0.0552194 0.0505915 0.0535045 0.0547682 0.0552545 0.0508242 0.0552692 0.0548288 0.0534741 0.0507531 0.0553051 0.0552216 0.053487 0.0549005 0.0507007 0.0510623 0.0533901 0.0553859 0.054752 0.0553421 0.0533842 0.0511067 0.0553507 0.0548255 0.0533776 0.0509055 0.0553681 0.053232 0.0508876 0.0548417 0.0553168 0.053282 0.0545985 0.0510864 0.0553001 0.05337 0.0545286 0.051481 0.0553075 0.0545969 0.0533405 0.055274 0.0515482 0.0532489 0.0546172 0.0552368 0.0516203 0.0531702 0.0545544 0.0513996 0.0552774 0.0530627 0.0514445 0.0546512 0.0552151 0.0531462 0.0514778 0.0546616 0.055204 0.0531347 0.0547082 0.0517371 0.05525 0.0546448 0.053245 0.0547012 0.0551819 0.0517423 0.0530885 0.0547521 0.0551384 0.0532282 0.0547468 0.0518862 0.0551013 0.0530448 0.0547376 0.0516615 0.0550675 0.052965 0.0548076 0.0551718 0.0516038 0.0548039 0.055192 0.0533715 0.0517167 0.0551366 0.0546362 0.0533001 0.0512964 0.0550787 0.0546796 0.0533002 0.0550199 0.0512221 0.0547031 0.0531879 0.0550519 0.0513332 0.0546805 0.053174 0.0549554 0.0511463 0.0532192 0.0546912 0.0549269 0.0511114 0.0533038 0.0547472 0.0550128 0.054741 0.0512975 0.0549903 0.0532545 0.0547809 0.0514139 0.0549404 0.0547893 0.0531493 0.0551566 0.0515656 0.0548656 0.0530592 0.0551096 0.0548138 0.0514448 0.0551102 0.0531248 0.0548676 0.0512016 0.053098 0.0551632 0.0548482 0.0530534 0.051325 0.0551137 0.0549159 0.0529657 0.0547993 0.0550667 0.0513765 0.0529662 0.0548146 0.0529378 0.0524451 0.0550442 0.0548405 0.0529923 0.0548795 0.052593 0.0549736 0.0530543 0.0548609 0.0550413 0.0523183 0.054893 0.0529324 0.0549138 0.0524287 0.0529355 0.0549245 0.0548894 0.0528385 0.0525928 0.054885 0.054982 0.0527964 0.0525607 0.0549226 0.0545481 0.054961 0.0544834 0.0530277 0.0527418 0.0549439 0.054474 0.0526814 0.0529113 0.0549681 0.0544104 0.0525166 0.0529748 0.0549892 0.0544081 0.0526111 0.0528297 0.0548626 0.0545835 0.0521758 0.0549569 0.0545299 0.0529351 0.0522975 0.0549354 0.0544712 0.0527647 0.0542831 0.0549787 0.0528539 0.0520089 0.0543344 0.0550014 0.052872 0.052148 0.054346 0.0549168 0.0528411 0.0542117 0.0521634 0.0549958 0.0527272 0.0544272 0.0524218 0.0550227 0.0527465 0.0543666 0.052407 0.0550141 0.0527098 0.0523305 0.0543134 0.0550184 0.0542933 0.0525923 0.0524734 0.0550592 0.052718 0.0545824 0.0522197 0.0551395 0.0546077 0.0526096 0.0523817 0.0550792 0.0544991 0.0523152 0.0525655 0.0550823 0.0544993 0.0527877 0.0524666 0.0547035 0.0546344 0.0528705 0.0526222 0.0547621 0.0528124 0.0546271 0.0525981 0.05482 0.0527092 0.0545592 0.0524893 0.0548231 0.0526625 0.0545704 0.0548146 0.0544431 0.0525033 0.0529354 0.0544423 0.0547636 0.0524385 0.0529597 0.05438 0.0548784 0.0528366 0.0548865 0.0544962 0.0530785 0.0528215 0.054436 0.0549357 0.0527177 0.0528004 0.0543891 0.0549518 0.0525861 0.0528576 0.05416 0.0549373 0.0527054 0.0541649 0.0548921 0.0540226 0.0526841 0.0529636 0.0550509 0.0540965 0.0550255 0.0525153 0.0527837 0.0542539 0.0525649 0.0549919 0.0542318 0.0527096 0.054192 0.0525987 0.0548553 0.0526786 0.0541051 0.0549261 0.0524511 0.0526041 0.0540261 0.0549021 0.0524814 0.053947 0.0524968 0.0527069 0.0548336 0.0538862 0.0525285 0.0539096 0.0549149 0.052764 0.0526204 0.0539864 0.0526024 0.0524742 0.0548554 0.0540804 0.0525896 0.0526347 0.0539952 0.0549755 0.0524753 0.0519733 0.0549662 0.0539193 0.0523205 0.0518723 0.0549843 0.0543125 0.0520406 0.0550256 0.0542591 0.0523568 0.0542247 0.0517334 0.0550752 0.0523878 0.0541614 0.0519164 0.0550221 0.0524136 0.0543593 0.0518211 0.05509 0.0523487 0.0543262 0.0521985 0.0550111 0.0542906 0.0520573 0.0522527 0.0550732 0.0521069 0.0542581 0.0550511 0.0522207 0.0541374 0.0522564 0.0550738 0.054055 0.0519792 0.0521899 0.0551111 0.0540224 0.052132 0.0551295 0.054186 0.0519782 0.0539384 0.0551226 0.0541487 0.0516024 0.0551309 0.05409 0.0539289 0.0516636 0.0551741 0.0540436 0.0551596 0.0539171 0.0515 0.0547169 0.0551719 0.0538418 0.0515722 0.0552097 0.0546398 0.0550858 0.0517912 0.0545698 0.0538065 0.0550946 0.0520084 0.0546368 0.0537165 0.0551329 0.0518499 0.0547168 0.0551132 0.0538192 0.0546382 0.0516707 0.0544826 0.0551377 0.0537869 0.051685 0.0551605 0.0543983 0.0538087 0.0518295 0.0552164 0.0545614 0.0536889 0.0551696 0.0545661 0.0523414 0.0545078 0.053718 0.0552417 0.052341 0.0544873 0.0552021 0.0535967 0.0521026 0.0544416 0.0536984 0.0552503 0.0522207 0.0547716 0.0536711 0.055214 0.0522175 0.0547023 0.0551853 0.0537566 0.0547049 0.0524872 0.0552397 0.053696 0.0523551 0.054824 