# vtk DataFile Version 3.0
vtk output
ASCII
DATASET UNSTRUCTURED_GRID
POINTS 44486 float
0.00824068 0.0117922 0
0.0139333 0 0
0.01632 0 0
0.0203476 0.00956636 0
0.0187965 0.0169783 0
0.0156894 0.0187631 0
0.00824068 0.0117922 0
0 0 0
0.0139333 0 0
0.00824068 0.0117922 0
0 0.0130653 0
0 0 0
0 0.0130653 0
0.00824068 0.0117922 0
0.0156894 0.0187631 0
0.013768 0.0227002 0
0.0122399 0.0235585 0
0 0.0216958 0
0 0.0130653 0
0.01632 0 0
0.0333467 0 0
0.0329175 0.00885326 0
0.0203476 0.00956636 0
0.01632 0 0
0.0187965 0.0169783 0
0.0203476 0.00956636 0
0.0329175 0.00885326 0
0.0335229 0.00985271 0
0.0320928 0.0198068 0
0.0293559 0.0210197 0
0.0187965 0.0169783 0
0.00928 0.0343952 0
0.0122399 0.0235585 0
0.013768 0.0227002 0
0.0222371 0.0309533 0
0.0185086 0.0397524 0
0.0162196 0.0406122 0
0.00928 0.0343952 0
0 0.0216958 0
0.0122399 0.0235585 0
0.00928 0.0343952 0
0 0.0360926 0
0 0.0216958 0
0.013768 0.0227002 0
0.0156894 0.0187631 0
0.0187965 0.0169783 0
0.0293559 0.0210197 0
0.0272822 0.029395 0
0.0222371 0.0309533 0
0.013768 0.0227002 0
0.0320928 0.0198068 0
0.0335229 0.00985271 0
0.0455433 0.010713 0
0.0469718 0.0132234 0
0.0404883 0.0230522 0
0.0320928 0.0198068 0
0.0333467 0 0
0.0471951 0 0
0.0455433 0.010713 0
0.0335229 0.00985271 0
0.0329175 0.00885326 0
0.0333467 0 0
0.483382 0.453376 0
0.493302 0.453249 0
0.49651 0.458591 0
0.492817 0.466894 0
0.484696 0.467584 0
0.480658 0.459434 0
0.483382 0.453376 0
0.987246 0.449691 0
1 0.442251 0
1 0.458192 0
0.991212 0.457827 0
0.987246 0.449691 0
0.0574105 0.0114439 0
0.0547165 0 0
0.068585 0 0
0.069044 0.00643514 0
0.0634726 0.0118394 0
0.0574105 0.0114439 0
0.0455433 0.010713 0
0.0471951 0 0
0.0547165 0 0
0.0574105 0.0114439 0
0.0534116 0.0149138 0
0.0469718 0.0132234 0
0.0455433 0.010713 0
0.453612 0.466294 0
0.454557 0.467105 0
0.45583 0.477951 0
0.455367 0.478501 0
0.443734 0.481079 0
0.439199 0.474733 0
0.440471 0.470261 0
0.453612 0.466294 0
0.968231 0.460191 0
0.964524 0.45101 0
0.968163 0.447177 0
0.969797 0.446836 0
0.978852 0.452144 0
0.977416 0.461049 0
0.968231 0.460191 0
0.0272822 0.029395 0
0.0293559 0.0210197 0
0.0320928 0.0198068 0
0.0404883 0.0230522 0
0.0424078 0.0269575 0
0.0408643 0.0299501 0
0.0319629 0.0333107 0
0.0272822 0.029395 0
0.454557 0.467105 0
0.467094 0.464731 0
0.470224 0.471857 0
0.467623 0.478868 0
0.45583 0.477951 0
0.454557 0.467105 0
0.967788 0.472793 0
0.963986 0.466397 0
0.968231 0.460191 0
0.977416 0.461049 0
0.978104 0.462002 0
0.975417 0.474111 0
0.967788 0.472793 0
0.0547465 0.0220258 0
0.0534116 0.0149138 0
0.0574105 0.0114439 0
0.0634726 0.0118394 0
0.0677015 0.0212058 0
0.0632692 0.0252636 0
0.0547465 0.0220258 0
0.0495106 0.0273528 0
0.0547465 0.0220258 0
0.0632692 0.0252636 0
0.0636987 0.032651 0
0.0612213 0.0349599 0
0.0540801 0.0354401 0
0.0495106 0.0273528 0
0.978852 0.452144 0
0.985192 0.44885 0
0.987246 0.449691 0
0.991212 0.457827 0
0.987267 0.463218 0
0.978104 0.462002 0
0.977416 0.461049 0
0.978852 0.452144 0
0.45583 0.477951 0
0.467623 0.478868 0
0.469991 0.483484 0
0.466701 0.491512 0
0.457673 0.493324 0
0.456746 0.492741 0
0.455367 0.478501 0
0.45583 0.477951 0
0.0404883 0.0230522 0
0.0469718 0.0132234 0
0.0534116 0.0149138 0
0.0547465 0.0220258 0
0.0495106 0.0273528 0
0.0424078 0.0269575 0
0.0404883 0.0230522 0
0 0.0360926 0
0.00928 0.0343952 0
0.0162196 0.0406122 0
0.0131747 0.047397 0
0 0.0421281 0
0 0.0360926 0
0.987267 0.463218 0
0.989252 0.468859 0
0.984863 0.475629 0
0.976116 0.474967 0
0.975417 0.474111 0
0.978104 0.462002 0
0.987267 0.463218 0
0.443734 0.481079 0
0.455367 0.478501 0
0.456746 0.492741 0
0.445587 0.493564 0
0.441942 0.488337 0
0.443734 0.481079 0
0.0222371 0.0309533 0
0.0272822 0.029395 0
0.0319629 0.0333107 0
0.0311555 0.0423002 0
0.0283643 0.0445278 0
0.0185086 0.0397524 0
0.0222371 0.0309533 0
0.991212 0.457827 0
1 0.458192 0
1 0.471584 0
0.989252 0.468859 0
0.987267 0.463218 0
0.991212 0.457827 0
0.0134604 0.0496182 0
0.0131747 0.047397 0
0.0162196 0.0406122 0
0.0185086 0.0397524 0
0.0283643 0.0445278 0
0.0279594 0.0497856 0
0.0230968 0.0529494 0
0.0134604 0.0496182 0
0.944423 0.472216 0
0.952849 0.475199 0
0.954818 0.479456 0
0.950937 0.486426 0
0.93934 0.483084 0
0.938926 0.479865 0
0.944423 0.472216 0
0.458864 0.504344 0
0.457673 0.493324 0
0.466701 0.491512 0
0.472731 0.499276 0
0.471583 0.505303 0
0.462066 0.506819 0
0.458864 0.504344 0
0 0.0562943 0
0.0100564 0.0552564 0
0.0125534 0.0619339 0
0.00330089 0.070244 0
0 0.0700153 0
0 0.0562943 0
0.470224 0.471857 0
0.481875 0.471798 0
0.484132 0.481723 0
0.481168 0.484734 0
0.469991 0.483484 0
0.467623 0.478868 0
0.470224 0.471857 0
0.932363 0.464214 0
0.93374 0.463701 0
0.942782 0.467149 0
0.944423 0.472216 0
0.938926 0.479865 0
0.929697 0.473835 0
0.932363 0.464214 0
0 0.0421281 0
0.0131747 0.047397 0
0.0134604 0.0496182 0
0.0100564 0.0552564 0
0 0.0562943 0
0 0.0421281 0
0.0100564 0.0552564 0
0.0134604 0.0496182 0
0.0230968 0.0529494 0
0.0220642 0.0620781 0
0.0194181 0.0647493 0
0.0125534 0.0619339 0
0.0100564 0.0552564 0
0.952849 0.475199 0
0.95828 0.465843 0
0.963986 0.466397 0
0.967788 0.472793 0
0.962104 0.479961 0
0.954818 0.479456 0
0.952849 0.475199 0
0.481875 0.471798 0
0.484696 0.467584 0
0.492817 0.466894 0
0.49701 0.47273 0
0.492363 0.482253 0
0.484132 0.481723 0
0.481875 0.471798 0
0.0220642 0.0620781 0
0.0230968 0.0529494 0
0.0279594 0.0497856 0
0.0363789 0.0553108 0
0.0341123 0.0629373 0
0.0220642 0.0620781 0
0.0408643 0.0299501 0
0.0424078 0.0269575 0
0.0495106 0.0273528 0
0.0540801 0.0354401 0
0.0494862 0.0417875 0
0.044687 0.0422185 0
0.0408643 0.0299501 0
0.937121 0.486161 0
0.93934 0.483084 0
0.950937 0.486426 0
0.9513 0.487796 0
0.944465 0.498477 0
0.942302 0.499146 0
0.938727 0.497794 0
0.937121 0.486161 0
0.469991 0.483484 0
0.481168 0.484734 0
0.482458 0.494334 0
0.472731 0.499276 0
0.466701 0.491512 0
0.469991 0.483484 0
0.0408643 0.0299501 0
0.044687 0.0422185 0
0.0423016 0.0445201 0
0.0311555 0.0423002 0
0.0319629 0.0333107 0
0.0408643 0.0299501 0
0.954818 0.479456 0
0.962104 0.479961 0
0.967315 0.488003 0
0.967314 0.488007 0
0.960195 0.49324 0
0.9513 0.487796 0
0.950937 0.486426 0
0.954818 0.479456 0
0.0283643 0.0445278 0
0.0311555 0.0423002 0
0.0423016 0.0445201 0
0.0416989 0.0531062 0
0.0363789 0.0553108 0
0.0279594 0.0497856 0
0.0283643 0.0445278 0
0.481168 0.484734 0
0.484132 0.481723 0
0.492363 0.482253 0
0.496551 0.487932 0
0.492848 0.495278 0
0.487297 0.496994 0
0.482458 0.494334 0
0.481168 0.484734 0
0.0494862 0.0417875 0
0.0540801 0.0354401 0
0.0612213 0.0349599 0
0.0635009 0.0471585 0
0.0551416 0.0492047 0
0.0494862 0.0417875 0
0.506852 0.0156998 0
0.506985 0.0102548 0
0.512829 0.00463476 0
0.520518 0.0112807 0
0.520663 0.0147851 0
0.513792 0.021141 0
0.506852 0.0156998 0
0.0358101 0.0672406 0
0.0341123 0.0629373 0
0.0363789 0.0553108 0
0.0416989 0.0531062 0
0.0467668 0.0558999 0
0.0459254 0.0660213 0
0.0358101 0.0672406 0
0.9513 0.487796 0
0.960195 0.49324 0
0.960086 0.498446 0
0.954259 0.503293 0
0.944465 0.498477 0
0.9513 0.487796 0
0.0416989 0.0531062 0
0.0423016 0.0445201 0
0.044687 0.0422185 0
0.0494862 0.0417875 0
0.0551416 0.0492047 0
0.052497 0.0546167 0
0.0467668 0.0558999 0
0.0416989 0.0531062 0
0.494927 0 0
0.513214 0 0
0.512829 0.00463476 0
0.506985 0.0102548 0
0.495501 0.00555527 0
0.494927 0 0
0.962104 0.479961 0
0.967788 0.472793 0
0.975417 0.474111 0
0.976116 0.474967 0
0.974973 0.483769 0
0.967315 0.488003 0
0.962104 0.479961 0
0.052497 0.0546167 0
0.0551416 0.0492047 0
0.0635009 0.0471585 0
0.0635315 0.0471717 0
0.067022 0.0598256 0
0.0670093 0.0598506 0
0.0588877 0.0618375 0
0.052497 0.0546167 0
0.512829 0.00463476 0
0.513214 0 0
0.53005 0 0
0.529666 0.00474067 0
0.520518 0.0112807 0
0.512829 0.00463476 0
0.989252 0.468859 0
1 0.471584 0
1 0.47922 0
0.988802 0.481633 0
0.984863 0.475629 0
0.989252 0.468859 0
0.0459254 0.0660213 0
0.0467668 0.0558999 0
0.052497 0.0546167 0
0.0588877 0.0618375 0
0.0565707 0.0671474 0
0.0501713 0.0699126 0
0.0459254 0.0660213 0
0.520518 0.0112807 0
0.529666 0.00474067 0
0.536331 0.0134192 0
0.530439 0.0207426 0
0.520663 0.0147851 0
0.520518 0.0112807 0
0.986592 0.487993 0
0.988802 0.481633 0
1 0.47922 0
1 0.49161 0
0.992087 0.492578 0
0.986592 0.487993 0
0.069044 0.00643514 0
0.068585 0 0
0.0848368 0 0
0.0793166 0.0127309 0
0.0792587 0.0127401 0
0.069044 0.00643514 0
0.0634726 0.0118394 0
0.069044 0.00643514 0
0.0792587 0.0127401 0
0.0719024 0.0212661 0
0.0677015 0.0212058 0
0.0634726 0.0118394 0
0.976116 0.474967 0
0.984863 0.475629 0
0.988802 0.481633 0
0.986592 0.487993 0
0.983002 0.488997 0
0.974973 0.483769 0
0.976116 0.474967 0
0.507074 0.0319167 0
0.499733 0.0264709 0
0.500575 0.0197998 0
0.506852 0.0156998 0
0.513792 0.021141 0
0.514018 0.0247808 0
0.507223 0.0319242 0
0.507074 0.0319167 0
0.0793166 0.0127309 0
0.0848368 0 0
0.09177 0 0
0.0914793 0.012803 0
0.0838968 0.0152273 0
0.0793166 0.0127309 0
0.967314 0.488007 0
0.974895 0.499338 0
0.968343 0.504687 0
0.960086 0.498446 0
0.960195 0.49324 0
0.967314 0.488007 0
0.524079 0.0345033 0
0.523151 0.0297838 0
0.53048 0.0215553 0
0.539746 0.0299335 0
0.53426 0.0367573 0
0.524079 0.0345033 0
0.102605 0.012964 0
0.0970529 0.0158112 0
0.0914793 0.012803 0
0.09177 0 0
0.0996675 0 0
0.102605 0.012964 0
0.0734649 0.0352659 0
0.0767467 0.0278812 0
0.0857154 0.0266981 0
0.0867001 0.0274037 0
0.0879034 0.0345009 0
0.0828508 0.0392811 0
0.0751903 0.0386431 0
0.0734649 0.0352659 0
0.974973 0.483769 0
0.983002 0.488997 0
0.978129 0.499366 0
0.974895 0.499338 0
0.967314 0.488007 0
0.967315 0.488003 0
0.974973 0.483769 0
0.513792 0.021141 0
0.520663 0.0147851 0
0.530439 0.0207426 0
0.53048 0.0215553 0
0.523151 0.0297838 0
0.514018 0.0247808 0
0.513792 0.021141 0
0.0767467 0.0278812 0
0.0719024 0.0212661 0
0.0792587 0.0127401 0
0.0793166 0.0127309 0
0.0838968 0.0152273 0
0.0857154 0.0266981 0
0.0767467 0.0278812 0
0.53005 0 0
0.543467 0 0
0.543765 0.00761154 0
0.53791 0.0132943 0
0.536331 0.0134192 0
0.529666 0.00474067 0
0.53005 0 0
0.978129 0.499366 0
0.983002 0.488997 0
0.986592 0.487993 0
[...]
CELL_DATA 6400
FIELD FieldData 3
weight 1 6400 float
 0.0523089 0.0522316 0.0522735 0.05241 0.052434 0.0524001 0.0523096 0.0524253 0.0525227 0.0525026 0.0547776 0.0526252 0.0526418 0.052573 0.054696 0.0527718 0.0525162 0.0547154 0.0527455 0.052674 0.0526809 0.0526825 0.0546731 0.0525912 0.0523611 0.0526588 0.0546584 0.0524934 0.0525902 0.0524707 0.0528806 0.0546165 0.0523884 0.0547164 0.0529839 0.0523621 0.0524737 0.0528069 0.0547336 0.0525703 0.0526336 0.0528698 0.0546636 0.0525822 0.052764 0.0525813 0.0546716 0.0527293 0.0543852 0.0526679 0.0527901 0.0526723 0.0543524 0.0527144 0.0527859 0.0543479 0.0525713 0.0527451 0.0543866 0.0525108 0.0527399 0.0527272 0.0526171 0.0544286 0.0528042 0.0526834 0.0544571 0.052864 0.0528466 0.0526385 0.0544287 0.052806 0.0543436 0.0525432 0.0527652 0.054384 0.0529345 0.0524662 0.0543772 0.0528699 0.0543335 0.052916 0.0525232 0.0543422 0.0529885 0.0524147 0.0530209 0.0544138 0.0529528 0.0544306 0.0530204 0.0524687 0.0531032 0.0544165 0.0531008 0.0526463 0.0545138 0.0527846 0.0525633 0.0545232 0.0529544 0.0524655 0.0528921 0.0544709 0.0528536 0.0523568 0.0545094 0.052917 0.0525471 0.0545555 0.0529807 0.0530204 0.0545619 0.0527527 0.0531001 0.0545476 0.0531853 0.0528277 0.0544759 0.0530631 0.0526403 0.0545123 0.0532328 0.0544675 0.0531463 0.0526946 0.0524223 0.0545266 0.0527844 0.0524648 0.0545531 0.0525887 0.0508662 0.0523438 0.0543072 0.0525512 0.0507954 0.0524321 0.0543465 0.0543213 0.0526698 0.0525011 0.0509979 0.054385 0.0524796 0.0523505 0.05437 0.0525024 0.0509765 0.0523092 0.0542745 0.0526155 0.050656 0.0522697 0.0543083 0.0507135 0.0527177 0.0524225 0.0542527 0.0507943 0.0528511 0.0542322 0.0507055 0.0524069 0.0528311 0.0543506 0.0526431 0.0527368 0.0543565 0.0545997 0.0542973 0.0525834 0.0528202 0.0543095 0.0527158 0.0546133 0.0527587 0.0545574 0.0528778 0.054445 0.0525011 0.0528122 0.0545032 0.0544882 0.0525147 0.0525282 0.0544668 0.0525671 0.0544229 0.054555 0.0526172 0.0545034 0.0545303 0.0526154 0.0527377 0.0545 0.0546143 0.0526535 0.0527214 0.0545005 0.0525719 0.0545698 0.0528896 0.0544013 0.0527568 0.0526805 0.0545829 0.0544179 0.0526392 0.0545045 0.0543852 0.0528115 0.0544596 0.0545374 0.0529191 0.0544542 0.0544911 0.0528929 0.0544096 0.054444 0.0528416 0.054597 0.0544457 0.0529795 0.0529675 0.0546364 0.0543823 0.054603 0.0544378 0.0529571 0.0530833 0.0546245 0.0544329 0.0529256 0.0528667 0.0544731 0.0531066 0.0546783 0.0543917 0.0528954 0.0530759 0.0546442 0.0543472 0.0529862 0.0530202 0.0546653 0.0543771 0.0530102 0.054585 0.0529677 0.0545948 0.0531905 0.0531169 0.0531924 0.0545486 0.0531793 0.0545708 0.0532867 0.0546463 0.0545608 0.054657 0.0533185 0.0532804 0.0546127 0.0544863 0.053267 0.0530782 0.0545273 0.054713 0.0531932 0.0545104 0.0546866 0.0531881 0.0531523 0.0544514 0.0546976 0.0533223 0.0544728 0.0532203 0.0547265 0.0530675 0.054527 0.0527809 0.0530033 0.0547511 0.0529791 0.0531796 0.0547651 0.0544743 0.0528563 0.0530423 0.0546954 0.0544132 0.0527028 0.0530986 0.0547117 0.0544239 0.052817 0.0546799 0.0532387 0.0543959 0.0529768 0.0547308 0.0544633 0.0531774 0.0530566 0.0547477 0.0544128 0.0532846 0.0543986 0.0547336 0.0531595 0.0532381 0.0543271 0.0545811 0.0533844 0.0529166 0.0543455 0.0543289 0.0533796 0.0545442 0.0530102 0.0543602 0.0545417 0.0533446 0.0530494 0.0543506 0.0546196 0.0522105 0.0533098 0.054277 0.0545945 0.0522319 0.0546258 0.0523027 0.0534041 0.0542342 0.0545783 0.0520748 0.0530591 0.0543044 0.0545042 0.0521452 0.0531566 0.0521974 0.0543443 0.0532281 0.0544709 0.0523497 0.053155 0.0542679 0.0544622 0.0532541 0.0524688 0.0543302 0.0545529 0.0545497 0.0525158 0.0531955 0.0542024 0.0545113 0.0532244 0.0525893 0.0545069 0.0542551 0.0533176 0.0523773 0.0546614 0.0532972 0.0542226 0.0522811 0.0533975 0.0546612 0.0543294 0.0524714 0.0533318 0.0546246 0.0542902 0.0534653 0.0525425 0.0542879 0.0533677 0.0520959 0.0547331 0.0542419 0.0534368 0.051986 0.0547014 0.054223 0.0533814 0.0522034 0.0534367 0.054682 0.0541296 0.0518998 0.0535018 0.0546908 0.0541557 0.0519903 0.0532737 0.0545967 0.0521795 0.0545525 0.0533993 0.0540534 0.0520926 0.0545798 0.0520732 0.0533108 0.0540681 0.054649 0.0522786 0.0532805 0.0546547 0.0524302 0.0540705 0.0546226 0.0523473 0.0540935 0.0533716 0.0541748 0.0522383 0.0534479 0.0546148 0.0541501 0.0533638 0.0542081 0.0521333 0.0541489 0.0535293 0.0542214 0.0534675 0.052293 0.0541639 0.0540272 0.0541237 0.0540729 0.0526877 0.0536231 0.0541839 0.0527704 0.0540087 0.0535809 0.054278 0.052611 0.0542448 0.0535633 0.0542368 0.0527143 0.0540808 0.0535149 0.0542719 0.0540581 0.0529323 0.0542806 0.0536505 0.0541548 0.0541926 0.0528866 0.0535003 0.0541911 0.0541456 0.0535739 0.0541301 0.0530288 0.0542052 0.0536014 0.0541076 0.0542586 0.0528353 0.0535252 0.0541886 0.054342 0.053624 0.0527995 0.0542971 0.0535635 0.0542073 0.0529158 0.0542522 0.0541129 0.0536981 0.0529738 0.0543622 0.0541473 0.0536451 0.0524766 0.05411 0.0536661 0.0543776 0.0525481 0.0540626 0.0536951 0.0525333 0.0540219 0.0544106 0.0537575 0.0526675 0.0543284 0.0537378 0.0539717 0.0542028 0.0524296 0.0537634 0.0539857 0.0541549 0.0523786 0.0542211 0.0538189 0.0540991 0.0542839 0.0524381 0.0540098 0.0540544 0.0540189 0.0539457 0.0539188 0.0544216 0.0544717 0.054278 0.0543897 0.05381 0.0543999 0.052594 0.053676 0.054339 0.0543733 0.0536517 0.0543327 0.0527262 0.0542165 0.0537104 0.0543389 0.0540524 0.0528169 0.0537066 0.054321 0.0540089 0.0527986 0.0540199 0.0537337 0.0543632 0.0539595 0.0537837 0.0526548 0.0538946 0.054294 0.0537846 0.0540707 0.0526054 0.0542693 0.0537897 0.05399 0.0542501 0.0527251 0.0538562 0.053995 0.0542189 0.0538477 0.0538579 0.0543066 0.0533944 0.0539199 0.053828 0.054274 0.0534787 0.0537743 0.0542541 0.0538951 0.0538419 0.0533303 0.0542302 0.0539019 0.0539439 0.053407 0.0541928 0.0538895 0.0535508 0.0534013 0.0541515 0.0538248 0.0534604 0.0541981 0.0536566 0.0541443 0.0541417 0.053406 0.0540542 0.0536552 0.0541837 0.0535374 0.0540633 0.0534804 0.0541729 0.0535387 0.0542003 0.0534726 0.0541132 0.0535744 0.0541395 0.0536038 0.0535621 0.0540529 0.054128 0.0535319 0.0533105 0.0539604 0.0542506 0.0535922 0.0533887 0.0539175 0.0542128 0.0536663 0.053291 0.0539649 0.0536064 0.0541572 0.0531559 0.0536759 0.0541084 0.0541626 0.0531563 0.0540473 0.0541335 0.0534548 0.053298 0.0540332 0.05412 0.0534771 0.0532879 0.0535989 0.0539615 0.0534817 0.0535341 0.0541284 0.054442 0.0534711 0.0544248 0.0540752 0.0535505 0.0534674 0.0543829 0.0533637 0.0535557 0.0540657 0.0544852 0.0533843 0.053625 0.0540353 0.0544671 0.0534634 0.0536723 0.0544148 0.0539963 0.0537425 0.0543338 0.0537331 0.0540139 0.0537436 0.0543117 0.0540885 0.0537328 0.0542751 0.0537449 0.0540707 0.0543689 0.0538166 0.0536785 0.0540034 0.0543486 0.0536467 0.0538143 0.053938 0.0545177 0.0537342 0.0538052 0.0540304 0.0544936 0.0539825 0.0537282 0.0538102 0.0545554 0.0538072 0.0539197 0.0538864 0.053892 0.0545939 0.0539545 0.0538168 0.0545374 0.0539196 0.0537418 0.053969 0.0544262 0.0538734 0.0538841 0.0543672 0.0539297 0.0538298 0.0544065 0.053927 0.0538391 0.0544569 0.0538724 0.0538705 0.0544735 0.054015 0.0539365 0.0541674 0.0545078 0.0536429 0.0539845 0.0541121 0.053732 0.0539553 0.0544188 0.0541114 0.0536501 0.053955 0.0542258 0.0540333 0.0535607 0.0540246 0.0540597 0.0542479 0.0535557 0.0540957 0.0541632 0.0540809 0.0537943 0.0540708 0.0541815 0.0537565 0.0538131 0.0540245 0.05432 0.0539947 0.0538893 0.0538812 0.054285 0.0539577 0.0539546 0.0542062 0.0536711 0.0539462 0.0542586 0.053887 0.0539195 0.0537432 0.0539568 0.0540964 0.0539998 0.0538413 0.054027 0.0539461 0.0540335 0.0537893 0.0540825 0.0540692 0.0539548 0.0541372 0.0530875 0.0538308 0.0540936 0.0541796 0.05319 0.0539002 0.0541108 0.0540181 0.0531538 0.0543144 0.0530486 0.0538705 0.0540805 0.0542471 0.0538722 0.0530461 0.0543686 0.0541426 0.0538263 0.0531489 0.0525499 0.0532641 0.0537396 0.054387 0.0527558 0.0533713 0.0537956 0.054305 0.0526561 0.0539712 0.0533641 0.0542207 0.0526644 0.0538938 0.053256 0.0525722 0.0541608 0.0539227 0.0532597 0.0527291 0.0542696 0.0538674 0.0528281 0.0528861 0.053859 0.0542512 0.0529092 0.0538069 0.0529371 0.0541968 0.053835 0.0530346 0.0529914 0.0538 0.053021 0.052917 0.0541753 0.0537718 0.0529168 0.0528292 0.0548148 0.0537743 0.0528894 0.0527783 0.0537114 0.0529401 0.0547813 0.0529247 0.0536306 0.0530166 0.0548041 0.0527188 0.0531432 0.0537671 0.0526473 0.0548211 0.0531635 0.0537156 0.0526304 0.0537406 0.0548409 0.0532753 0.0527804 0.0548377 0.0536793 0.053078 0.0527928 0.0547854 0.0531904 0.0536258 0.0526702 0.0547815 0.0536588 0.0531101 0.0528987 0.0547567 0.0536886 0.0527867 0.0534483 0.0548192 0.0528763 0.0536384 0.0534939 0.0547934 0.0529038 0.0535526 0.0535845 0.0548206 0.0530792 0.0535967 0.0529938 0.0548661 0.0533785 0.0529671 0.0548577 0.0533779 0.053508 0.0530343 0.0549029 0.0534662 0.052999 0.0539724 0.0534803 0.0530763 0.053984 0.0536532 0.0531053 0.0539616 0.054892 0.0530824 0.0539132 0.0536724 0.0548879 0.0531143 0.0548796 0.0535821 0.0538322 0.0532735 0.0548676 0.0535676 0.0538836 0.0548453 0.0532183 0.0536495 0.0548467 0.0531756 0.0537997 0.0548682 0.0532896 0.0531289 0.0548738 0.0533624 0.0539541 0.0532684 0.0548489 0.053931 0.0532053 0.0533647 0.0547648 0.0538557 0.0532574 0.0547277 0.0538536 0.0533021 0.053467 0.0547413 0.0538135 0.0534123 0.0548036 0.0535347 0.053752 0.0547728 0.0535497 0.0534842 0.0547698 0.0537674 0.0533543 0.053434 0.0537123 0.0546974 0.0533458 0.0533511 0.0546922 0.0536805 0.0534395 0.0534683 0.0546528 0.0531526 0.0536388 0.0534227 0.0547404 0.0532103 0.0535984 0.0547397 0.0518297 0.0532975 0.0536739 0.0532438 0.0519044 0.0547023 0.0536796 0.054806 0.0531694 0.0519604 0.0537839 0.0548293 0.0517304 0.0533705 0.0537551 0.0548302 0.0517792 0.0532944 0.0535597 0.0547968 0.0518409 0.0533975 0.0535819 0.0548534 0.0519204 0.0534464 0.0548238 0.0536574 0.0521001 0.0547707 0.0533765 0.0538824 0.0547869 0.0521871 0.0534819 0.053932 0.0547367 0.0520074 0.0534691 0.0539005 0.054812 0.05207 0.0537811 0.0535287 0.0547639 0.0521771 0.053763 0.0526991 0.0516366 0.0549243 0.0538397 0.0528544 0.0549311 0.0516961 0.0527747 0.0538663 0.0549097 0.051814 0.0527152 0.054951 0.0515547 0.0538203 0.0528785 0.0516418 0.0537943 0.05279 0.0549643 0.0516486 0.0537489 0.0530036 0.0529335 0.0531706 0.0530888 0.0529698 0.0530421 0.0531195 0.0528041 0.0527424 0.0529163 0.0518083 0.0528442 0.0536807 0.0549407 0.0527634 0.0536973 0.0528313 0.0519121 0.0549367 0.0537204 0.0548899 0.0529059 0.0519987 0.0536625 0.0549216 0.051777 0.0529815 0.0536232 0.0549119 0.052994 0.0535541 0.051821 0.0549002 0.0536155 0.0530648 0.0518854 0.0549009 0.0536404 0.0531507 0.0519437 0.0537001 0.0530729 0.0549898 0.0535924 0.0522931 0.0531665 0.0549731 0.0535344 0.0523696 0.0549579 0.0532277 0.05358 0.0521592 0.0532673 0.0522093 0.0550018 0.0535545 0.0533246 0.0522895 0.0532792 0.053501 0.054986 0.0524346 0.0531996 0.0549761 0.0535331 0.0533513 0.0549442 0.0525293 0.0534014 0.0534102 0.0549249 0.0524936 0.0534533 0.0549662 0.0534775 0.0533675 0.0549733 0.0526563 0.0534789 0.0536152 0.054959 0.0523429 0.0535368 0.0549487 0.0535301 0.0524935 0.0534665 0.05342 0.0548766 0.0524807 0.053388 0.0534459 0.054847 0.0520565 0.053452 0.0535062 0.0548498 0.0548757 0.0520741 0.0533615 0.0535626 0.054877 0.0522067 0.0533016 0.0533145 0.0548217 0.0519425 0.0532094 0.0547782 0.0532598 0.0533689 0.0520971 0.054789 0.0532295 0.0520827 0.0548496 0.0533217 0.0523595 0.0548209 0.0532496 0.0532451 0.0522276 0.0548008 0.0548991 0.0524129 0.0531669 0.0534128 0.0548785 0.0521415 0.0533847 0.0549269 0.0531174 0.0522896 0.0534514 0.0533433 0.0549348 0.0523619 0.0532691 0.0535187 0.054901 0.0532583 0.0522491 0.0548987 0.0536215 0.0531193 0.05149 0.0548809 0.0535754 0.0514613 0.0532043 0.0548334 0.0534748 0.0515606 0.0531297 0.0548175 0.0513515 0.0535634 0.053172 0.0512794 0.0548919 0.0534627 0.0513962 0.0536544 0.0548555 0.0535125 0.0514893 0.0535397 0.0533739 0.0546238 0.0515506 0.0535428 0.0533982 0.0545686 0.0516845 0.0533495 0.0536124 0.0546094 0.0516917 0.0534434 0.0536031 0.0546534 0.0517597 0.0534869 0.0535351 0.0546548 0.0534344 0.0518446 0.0546028 0.0536328 0.0533756 0.0545201 0.0536839 0.0516227 0.0533115 0.054564 0.05368 0.0516351 0.0533297 0.0544772 0.0512392 0.0538359 0.0532792 0.0545517 0.0511635 0.053219 0.0537722 0.0544984 0.0513835 0.0532899 0.0536992 0.0546968 0.0513218 0.0531934 0.0537975 0.0546584 0.0510553 0.0538786 0.0531213 0.0547191 0.0511498 0.0535663 0.0530965 0.0547489 0.0512639 0.053732 0.0531909 0.0546894 0.0536496 0.051544 0.0532293 0.054606 0.0536228 0.0514179 0.0545869 0.0531717 0.0514978 0.0536035 0.0545425 0.0530965 0.0537103 0.0546701 0.0513366 0.0538195 0.0530846 0.0546536 0.0537692 0.0546145 0.0514733 0.0530814 0.0539173 0.0545572 0.0519283 0.0538591 0.0538121 0.0544404 0.0519907 0.0537915 0.0543998 0.0517948 0.0538651 0.0538719 0.0543337 0.051722 0.0537458 0.0539407 0.0545079 0.0518872 0.0539664 0.0537498 0.0544617 0.0518505 0.0544267 0.0538993 0.0536474 0.0521333 0.0543081 0.0520477 0.0540224 0.0537153 0.0543636 0.0539329 0.0522021 0.0537642 0.0542418 0.0540044 0.0543619 0.0522445 0.0536507 0.0540717 0.0543075 0.0540069 0.0520256 0.0537039 0.0536614 0.0521208 0.0541323 0.0542512 0.0535984 0.0520288 0.0544775 0.0540709 0.0535651 0.0545165 0.0515964 0.054417 0.0536584 0.0541937 0.051758 0.0545125 0.0536132 0.0541356 0.0517492 0.0544613 0.0534644 0.0541868 0.0515964 0.0544687 0.0535074 0.0539475 0.0543595 0.0515612 0.0540001 0.0534238 0.0543075 0.0540598 0.0535423 0.0516951 0.0535622 0.0543027 0.0540577 0.0518742 0.0534973 0.0544027 0.0539975 0.0534628 0.0520517 0.0544116 0.0540566 0.053443 0.0543506 0.0518986 0.0541149 0.0533856 0.0547541 0.0541852 0.0517914 0.0533608 0.0547291 0.0541265 0.0536021 0.0517436 0.0547086 0.0535369 0.0542553 0.0547668 0.0518884 0.0541938 0.054741 0.0535263 0.052667 0.0546794 0.0535105 0.0541791 0.0546572 0.0528346 0.0534113 0.0542473 0.05461 0.0528078 0.0535257 0.0546129 0.0536818 0.0526515 0.0546798 0.05358 0.0536929 0.0547045 0.0526566 0.0537654 0.0546405 0.0533609 0.0527836 0.0547805 0.0537245 0.0534713 0.0528943 0.0547546 0.0536337 0.05342 0.0530075 0.0537683 0.0548238 0.0538153 0.0533192 0.0530081 0.0547877 0.0534264 0.0538523 0.0528073 0.0538339 0.0534199 0.0529201 0.0547892 0.0533265 0.0539281 0.0547564 0.0533243 0.0524855 0.0539875 0.0546802 0.0533016 0.0538953 0.0525496 0.0547083 0.0532201 0.0539687 0.0526881 0.0546381 0.0532078 0.0539144 0.0547101 0.0523732 0.0532876 0.0536856 0.0525481 0.0531805 0.0546724 0.0537685 0.052557 0.0545605 0.0532472 0.0537419 0.0528204 0.054558 0.0532061 0.0538232 0.0526825 0.0545135 0.0538602 0.0529216 0.0530834 0.0544588 0.0539005 0.0526807 0.0545954 0.0533411 0.0540159 0.0526522 0.0545027 0.0539439 0.0545518 0.0527756 0.0534384 0.0545127 0.0533701 0.0527816 0.0538907 0.0544038 0.0533021 0.0531241 0.0539667 0.0532519 0.0543479 0.0531313 0.0531944 0.054037 0.0543439 0.0532211 0.0532467 0.054055 0.0544544 0.0533362 0.0544523 0.0540035 0.0530161 0.0532339 0.0541167 0.0543955 0.0530131 0.0541168 0.0532676 0.0530627 0.054597 0.054081 0.0531965 0.0531319 0.0540397 0.0545269 0.0531299 0.0532449 0.0545795 0.0541395 0.0531343 0.0542424 0.0533033 0.0530896 0.0546207 0.0531457 0.0541876 0.0533785 0.0545663 0.0530208 0.054308 0.0531711 0.0545146 0.0543127 0.0544601 0.0529752 0.0532343 0.053034 0.0544081 0.0542438 0.0532623 0.0530863 0.0542059 0.0543756 0.0528999 0.0530155 0.0542695 0.0544587 0.0529738 0.0529584 0.0540849 0.0529685 0.0544012 0.0528544 0.0541316 0.0529111 0.0537514 0.0528485 0.0541897 0.0529072 0.053728 0.0530875 0.0531833 0.054112 0.0536904 0.0531674 0.0536669 0.0531538 0.0541673 0.0530558 0.0530943 0.0542748 0.0538202 0.0529731 0.0530474 0.0537675 0.0543145 0.0530256 0.0530701 0.0536956 0.0543489 0.052992 0.0531204 0.0535966 0.053101 0.0542311 0.0535307 0.0524326 0.0531008 0.0534623 0.0542954 0.0522923 0.0535421 0.0529849 0.0523835 0.0536197 0.0529004 0.0543565 0.053626 0.0525212 0.0529967 0.0535543 0.0538063 0.0521993 0.053947 0.0530063 0.0538856 0.0522392 0.0538562 0.0538443 0.0528705 0.0523816 0.0539241 0.0537706 0.0525381 0.0529408 0.0538615 0.0529591 0.0537675 0.0526502 0.0539555 0.0528646 0.0539146 0.052654 0.0539164 0.0540142 0.0523995 0.0538386 0.0528256 0.0539792 0.0538395 0.0540442 0.0528341 0.0525158 0.054021 0.0536626 0.052904 0.0539999 0.0520982 0.0536985 0.0527854 0.0540721 0.0535909 0.0521311 0.0527839 0.0537318 0.053872 0.0522441 0.0527499 0.0536471 0.0539575 0.0521786 0.0526615 0.0540013 0.0537183 0.0519717 0.053395 0.0526856 0.0539225 0.0534652 0.0519905 0.0534008 0.0540094 0.0533268 0.0539952 0.052051 0.0540418 0.0533246 0.0523278 0.054048 0.0538909 0.0535011 0.0524205 0.0534359 0.0540694 0.0533654 0.0539494 0.0541416 0.0521808 0.0531683 0.0541195 0.0532456 0.0522005 0.0539185 0.0541171 0.0531029 0.0522839 0.0538297 0.0532575 0.054186 0.0523077 0.0541009 0.0538469 0.0531317 0.0527494 0.0540633 0.053246 0.053725 0.054134 0.0527142 0.0541136 0.0531839 0.052861 0.0541557 0.0538049 0.0535494 0.0525815 0.0541069 0.0534686 0.0537885 0.0527587 0.0541933 0.0534366 0.0537623 0.0541557 0.0526237 0.053534 0.0541735 0.0536597 0.0529531 0.0536135 0.0542098 0.0538279 0.0542221 0.0535117 0.0528521 0.0538655 0.0533425 0.05427 0.0529178 0.0537656 0.0533003 0.05422 0.0527254 0.0537704 0.0532369 0.0542836 0.0528052 0.0537166 0.0532215 0.0543161 0.053678 0.05289 0.0541643 0.053398 0.0537142 0.0542161 0.0524754 0.0533654 0.053595 0.0542776 0.0524269 0.0535655 0.0542087 0.0532898 0.0526394 0.0536554 0.0539367 0.054251 0.0525362 0.053506 0.0542974 0.0539911 0.0522799 0.0536696 0.0542702 0.0538723 0.0525146 0.0543345 0.053586 0.0540297 0.0524104 0.0542447 0.0539677 0.0535544 0.0543115 0.0526951 0.0537943 0.053594 0.0543445 0.052789 0.0537432 0.0535118 0.0538185 0.0543859 0.0526847 0.0539031 0.0543377 0.0534862 0.0537587 0.0525999 0.054376 0.0533784 0.0538421 0.0540416 0.0524982 0.0533382 0.0540965 0.0541041 0.0534764 0.0541226 0.0525827 0.0540649 0.0534419 0.0541292 0.0540447 0.053333 0.0540729 0.0539849 0.0540059 0.0541883 0.053285 0.054181 0.0541204 0.0535079 0.0540792 0.0541773 0.0535745 0.0540263 0.0542757 0.0541177 0.0534088 0.0540744 0.0542135 0.0534117 0.0539805 0.0540072 0.054243 0.0534889 0.0539222 0.0540776 0.0543072 0.0534112 0.0542441 0.0537987 0.0533006 0.0540497 0.0542901 0.0538771 0.0533713 0.054183 0.0539527 0.0541501 0.0532635 0.0541541 0.054257 0.0539123 0.0533258 0.0541973 0.0542269 0.0538309 0.0531848 0.0541004 0.0542067 0.0536726 0.0531846 0.0541414 0.0536655 0.0540035 0.0541487 0.0537254 0.053547 0.0539223 0.0541987 0.0536669 0.0535812 0.0540277 0.0542594 0.053568 0.0539505 0.0537072 0.0543109 0.0536202 0.0538712 0.0536803 0.054251 0.0535829 0.0538898 0.0536106 0.0543428 0.0534526 0.0540578 0.0535155 0.0543148 0.0540951 0.0534706 0.0535006 0.0543618 0.0539775 0.0533774 0.0536114 0.0540091 0.0534798 0.0544275 0.0534267 0.0535244 0.0540518 0.0543833 0.0534733 0.0534192 0.0543093 0.053432 0.0533625 0.0543115 0.0535589 0.0543806 0.0537427 0.0543357 0.0535042 0.0536614 0.0543511 0.0541777 0.0534446 0.0536251 0.0543772 0.0542546 0.054352 0.0534434 0.053777 0.0542915 0.0544071 0.0544003 0.0537005 0.0533939 0.0543553 0.054435 0.0533668 0.0536444 0.0544045 0.053339 0.053572 0.0544333 0.0535385 0.0532388 0.0543279 0.0544517 0.0533533 0.0534302 0.0543892 0.0544829 0.054138 0.05325 0.0534721 0.0545208 0.0542074 0.0532614 0.0544144 0.0535146 0.0541846 0.0544398 0.0533121 0.0535914 0.054256 0.0544499 0.0533436 0.0541103 0.0534874 0.0544546 0.0532806 0.0541176 0.052991 0.0544971 0.053351 0.054284 0.0530761 0.0532287 0.0545156 0.0529236 0.0543299 0.0531974 0.0545055 0.0529576 0.0543138 0.0531541 0.0545212 0.0541994 0.0531375 0.0532631 0.0541716 0.0545532 0.0530511 0.0530897 0.0542262 0.0545661 0.0529703 0.0531054 0.0542598 0.0530459 0.0545592 0.0530477 0.0528571 0.05374 0.0527865 0.05461 0.0530021 0.0527966 0.0538145 0.0542706 0.0527097 0.053737 0.0527136 0.0542413 0.05381 0.052881 0.0543072 0.0538735 0.0542647 0.052882 0.0543157 0.0539166 0.052804 0.0542996 0.0539681 0.054341 0.0531461 0.0538305 0.0530632 0.0537957 0.0542833 0.05430