# vtk DataFile Version 3.0
vtk output
ASCII
DATASET UNSTRUCTURED_GRID
POINTS 44497 float
0.954027 0.349747 0
0.961071 0.345747 0
0.967383 0.349418 0
0.967835 0.358518 0
0.965452 0.360348 0
0.957798 0.358424 0
0.954027 0.349747 0
0 0.0149602 0
0.00698972 0.013823 0
0.0125613 0.0177286 0
0.0097605 0.0267878 0
0 0.0266704 0
0 0.0149602 0
0.0119356 0 0
0.016248 0 0
0.0184859 0.0154433 0
0.0125613 0.0177286 0
0.00698972 0.013823 0
0.0119356 0 0
0.330655 0.466866 0
0.332514 0.469965 0
0.328586 0.480397 0
0.325405 0.481536 0
0.317388 0.475697 0
0.31676 0.472957 0
0.323698 0.465369 0
0.330655 0.466866 0
0 0 0
0.0119356 0 0
0.00698972 0.013823 0
0 0.0149602 0
0 0 0
0.944186 0.354396 0
0.953161 0.349516 0
0.954027 0.349747 0
0.957798 0.358424 0
0.950714 0.365284 0
0.944831 0.363345 0
0.944186 0.354396 0
0.0276366 0.0132269 0
0.0249859 0 0
0.0357343 0 0
0.0371732 0.0102829 0
0.031643 0.0145653 0
0.0276366 0.0132269 0
0.019879 0.0159136 0
0.0184859 0.0154433 0
0.016248 0 0
0.0249859 0 0
0.0276366 0.0132269 0
0.019879 0.0159136 0
0.317388 0.475697 0
0.325405 0.481536 0
0.32304 0.48889 0
0.310865 0.490873 0
0.308092 0.488065 0
0.307897 0.485967 0
0.317388 0.475697 0
0.333124 0.932534 0
0.334384 0.932497 0
0.343972 0.940948 0
0.338624 0.950331 0
0.327689 0.946307 0
0.326908 0.943908 0
0.333124 0.932534 0
0 0.0266704 0
0.0097605 0.0267878 0
0.0100174 0.0271207 0
0.00738603 0.0415679 0
0.00511594 0.0424841 0
0 0.0422449 0
0 0.0266704 0
0.939416 0.374323 0
0.940005 0.366534 0
0.944831 0.363345 0
0.950714 0.365284 0
0.953222 0.37055 0
0.949234 0.378305 0
0.939416 0.374323 0
0.332514 0.469965 0
0.342255 0.47157 0
0.344781 0.479462 0
0.337427 0.485401 0
0.328586 0.480397 0
0.332514 0.469965 0
0.00738603 0.0415679 0
0.0100174 0.0271207 0
0.021444 0.0306443 0
0.0215315 0.0310993 0
0.0144688 0.0425058 0
0.00738603 0.0415679 0
0.312896 0.954382 0
0.32307 0.955478 0
0.325221 0.959958 0
0.321256 0.967782 0
0.314826 0.970262 0
0.308648 0.966321 0
0.312896 0.954382 0
0.950714 0.365284 0
0.957798 0.358424 0
0.965452 0.360348 0
0.964984 0.368673 0
0.962793 0.371256 0
0.953222 0.37055 0
0.950714 0.365284 0
0.0233469 0.0274785 0
0.019879 0.0159136 0
0.0276366 0.0132269 0
0.031643 0.0145653 0
0.034033 0.023282 0
0.0336528 0.0238022 0
0.0233469 0.0274785 0
0.310865 0.490873 0
0.32304 0.48889 0
0.327786 0.497211 0
0.327556 0.498093 0
0.316356 0.502916 0
0.311551 0.499581 0
0.310865 0.490873 0
0.338624 0.950331 0
0.341182 0.955646 0
0.333844 0.961279 0
0.325221 0.959958 0
0.32307 0.955478 0
0.327689 0.946307 0
0.338624 0.950331 0
0.953222 0.37055 0
0.962793 0.371256 0
0.964691 0.381082 0
0.963042 0.382621 0
0.949988 0.380868 0
0.949234 0.378305 0
0.953222 0.37055 0
0.0097605 0.0267878 0
0.0125613 0.0177286 0
0.0184859 0.0154433 0
0.019879 0.0159136 0
0.0233469 0.0274785 0
0.021444 0.0306443 0
0.0100174 0.0271207 0
0.0097605 0.0267878 0
0.343972 0.940948 0
0.348899 0.94054 0
0.354048 0.950629 0
0.349064 0.957942 0
0.348174 0.958175 0
0.341182 0.955646 0
0.338624 0.950331 0
0.343972 0.940948 0
0.976316 0.344164 0
0.980344 0.356067 0
0.976148 0.359668 0
0.967835 0.358518 0
0.967383 0.349418 0
0.976316 0.344164 0
0.021444 0.0306443 0
0.0233469 0.0274785 0
0.0336528 0.0238022 0
0.0358317 0.0364295 0
0.0292531 0.0387401 0
0.0215315 0.0310993 0
0.021444 0.0306443 0
0.36489 0.936532 0
0.364962 0.936649 0
0.362267 0.949429 0
0.354048 0.950629 0
0.348899 0.94054 0
0.353093 0.935133 0
0.36489 0.936532 0
0.988084 0.355532 0
0.990206 0.345328 0
0.993836 0.343082 0
1 0.343546 0
1 0.357174 0
0.988084 0.355532 0
0.325405 0.481536 0
0.328586 0.480397 0
0.337427 0.485401 0
0.337879 0.492 0
0.327786 0.497211 0
0.32304 0.48889 0
0.325405 0.481536 0
0.0357343 0 0
0.0494706 0 0
0.0466162 0.0127562 0
0.0371732 0.0102829 0
0.0357343 0 0
0.976316 0.344164 0
0.976479 0.343808 0
0.979926 0.342063 0
0.990206 0.345328 0
0.988084 0.355532 0
0.987479 0.356001 0
0.980344 0.356067 0
0.976316 0.344164 0
0.031643 0.0145653 0
0.0371732 0.0102829 0
0.0466162 0.0127562 0
0.0466927 0.0128643 0
0.041404 0.0234428 0
0.034033 0.023282 0
0.031643 0.0145653 0
0.367414 0.953772 0
0.362267 0.949429 0
0.364962 0.936649 0
0.376712 0.940751 0
0.374904 0.952493 0
0.373299 0.95373 0
0.367414 0.953772 0
0.327786 0.497211 0
0.337879 0.492 0
0.34309 0.495599 0
0.343807 0.501595 0
0.335742 0.508118 0
0.331968 0.506552 0
0.327556 0.498093 0
0.327786 0.497211 0
0.05636 0.0136895 0
0.0585839 0 0
0.0630345 0 0
0.0692886 0.0147172 0
0.0691308 0.0149299 0
0.065949 0.0162389 0
0.05636 0.0136895 0
0.342255 0.47157 0
0.347134 0.465422 0
0.355971 0.468246 0
0.356968 0.476382 0
0.350467 0.481404 0
0.344781 0.479462 0
0.342255 0.47157 0
0.964984 0.368673 0
0.965452 0.360348 0
0.967835 0.358518 0
0.976148 0.359668 0
0.978834 0.370167 0
0.977384 0.372205 0
0.964984 0.368673 0
0.0466162 0.0127562 0
0.0494706 0 0
0.0585839 0 0
0.05636 0.0136895 0
0.0531802 0.0150586 0
0.0466927 0.0128643 0
0.0466162 0.0127562 0
0.367414 0.953772 0
0.373299 0.95373 0
0.376959 0.969034 0
0.372504 0.972049 0
0.36982 0.971832 0
0.361912 0.965013 0
0.367414 0.953772 0
0.041404 0.0234428 0
0.0466927 0.0128643 0
0.0531802 0.0150586 0
0.0537034 0.0261178 0
0.046333 0.0289736 0
0.041404 0.0234428 0
0.352548 0.489883 0
0.350467 0.481404 0
0.356968 0.476382 0
0.364305 0.479147 0
0.365655 0.486774 0
0.357523 0.49238 0
0.352548 0.489883 0
0.962793 0.371256 0
0.964984 0.368673 0
0.977384 0.372205 0
0.977104 0.376906 0
0.972356 0.381822 0
0.964691 0.381082 0
0.962793 0.371256 0
0.354048 0.950629 0
0.362267 0.949429 0
0.367414 0.953772 0
0.361912 0.965013 0
0.359638 0.965073 0
0.349064 0.957942 0
0.354048 0.950629 0
0.988841 0.369051 0
1 0.366033 0
1 0.381515 0
0.990775 0.38053 0
0.988841 0.369051 0
0.0336528 0.0238022 0
0.034033 0.023282 0
0.041404 0.0234428 0
0.046333 0.0289736 0
0.0447436 0.035651 0
0.0400223 0.0377935 0
0.0358317 0.0364295 0
0.0336528 0.0238022 0
0.371046 0.473523 0
0.37852 0.47759 0
0.378674 0.485371 0
0.372191 0.489721 0
0.365655 0.486774 0
0.364305 0.479147 0
0.371046 0.473523 0
0.321256 0.967782 0
0.330276 0.977334 0
0.327122 0.985209 0
0.326591 0.985397 0
0.314401 0.979806 0
0.314826 0.970262 0
0.321256 0.967782 0
0.978834 0.370167 0
0.988275 0.368687 0
0.988841 0.369051 0
0.990775 0.38053 0
0.987426 0.383343 0
0.977104 0.376906 0
0.977384 0.372205 0
0.978834 0.370167 0
0.355971 0.468246 0
0.361504 0.463457 0
0.37044 0.467715 0
0.371046 0.473523 0
0.364305 0.479147 0
0.356968 0.476382 0
0.355971 0.468246 0
0.0531802 0.0150586 0
0.05636 0.0136895 0
0.065949 0.0162389 0
0.0611225 0.0280992 0
0.0590641 0.0289167 0
0.0537034 0.0261178 0
0.0531802 0.0150586 0
0.333844 0.961279 0
0.341182 0.955646 0
0.348174 0.958175 0
0.343701 0.974589 0
0.343162 0.974798 0
0.337452 0.973553 0
0.333844 0.961279 0
0.987479 0.356001 0
0.988084 0.355532 0
1 0.357174 0
1 0.366033 0
0.988841 0.369051 0
0.988275 0.368687 0
0.987479 0.356001 0
0.0447436 0.035651 0
0.046333 0.0289736 0
0.0537034 0.0261178 0
0.0590641 0.0289167 0
0.0572548 0.0372391 0
0.0511404 0.0398914 0
0.0447436 0.035651 0
0.333844 0.961279 0
0.337452 0.973553 0
0.330276 0.977334 0
0.321256 0.967782 0
0.325221 0.959958 0
0.333844 0.961279 0
0.980344 0.356067 0
0.987479 0.356001 0
0.988275 0.368687 0
0.978834 0.370167 0
0.976148 0.359668 0
0.980344 0.356067 0
0.00738603 0.0415679 0
0.0144688 0.0425058 0
0.0191671 0.0472923 0
0.0187944 0.0522785 0
0.0104365 0.0568194 0
0.00511594 0.0424841 0
0.00738603 0.0415679 0
0.30677 0.984173 0
0.314401 0.979806 0
0.326591 0.985397 0
0.32009 0.998047 0
0.30677 0.984173 0
0.34309 0.495599 0
0.352548 0.489883 0
0.357523 0.49238 0
0.359011 0.499209 0
0.351122 0.505797 0
0.343807 0.501595 0
0.34309 0.495599 0
0.0245011 0.0576809 0
0.0187944 0.0522785 0
0.0191671 0.0472923 0
0.0276064 0.0440682 0
0.0338572 0.0510503 0
0.029324 0.0571149 0
0.0245011 0.0576809 0
0.327122 0.985209 0
0.336895 0.990596 0
0.336908 1 0
0.320157 1 0
0.32009 0.998047 0
0.326591 0.985397 0
0.327122 0.985209 0
0.750848 0.381977 0
0.753036 0.378209 0
0.761404 0.378447 0
0.766038 0.386991 0
0.761447 0.392502 0
0.753456 0.390902 0
0.750848 0.381977 0
0.0215315 0.0310993 0
0.0292531 0.0387401 0
0.0276064 0.0440682 0
0.0191671 0.0472923 0
0.0144688 0.0425058 0
0.0215315 0.0310993 0
0.344781 0.479462 0
0.350467 0.481404 0
0.352548 0.489883 0
0.34309 0.495599 0
0.337879 0.492 0
0.337427 0.485401 0
0.344781 0.479462 0
0.330276 0.977334 0
0.337452 0.973553 0
0.343162 0.974798 0
0.340533 0.988246 0
0.336895 0.990596 0
0.327122 0.985209 0
0.330276 0.977334 0
0 0.0422449 0
0.00511594 0.0424841 0
0.0104365 0.0568194 0
0.0100085 0.0575733 0
0 0.0605352 0
0 0.0422449 0
0.761404 0.378447 0
0.765789 0.372875 0
0.774399 0.37465 0
0.777321 0.381135 0
0.771735 0.387303 0
0.766038 0.386991 0
0.761404 0.378447 0
0.349064 0.957942 0
0.359638 0.965073 0
0.352299 0.97744 0
0.343701 0.974589 0
0.348174 0.958175 0
0.349064 0.957942 0
0.36982 0.971832 0
0.372504 0.972049 0
0.376167 0.984413 0
0.367359 0.990136 0
0.35806 0.985034 0
0.36982 0.971832 0
0.357523 0.49238 0
0.365655 0.486774 0
0.372191 0.489721 0
0.372944 0.497329 0
0.365516 0.502508 0
0.359011 0.499209 0
0.357523 0.49238 0
0.359638 0.965073 0
0.361912 0.965013 0
0.36982 0.971832 0
0.35806 0.985034 0
0.357898 0.98504 0
0.352299 0.97744 0
0.359638 0.965073 0
0 0.0605352 0
0.0100085 0.0575733 0
0.0136012 0.0657898 0
0.00810599 0.0713462 0
0 0.0695365 0
0 0.0605352 0
0.343162 0.974798 0
0.343701 0.974589 0
0.352299 0.97744 0
0.357898 0.98504 0
0.353704 0.99012 0
0.340533 0.988246 0
0.343162 0.974798 0
0.771735 0.387303 0
0.777321 0.381135 0
0.782149 0.382136 0
0.786875 0.390126 0
0.781388 0.397246 0
0.776572 0.396908 0
0.771735 0.387303 0
0.368923 0.378106 0
0.380565 0.378111 0
0.383338 0.3861 0
0.375999 0.39303 0
0.369211 0.38845 0
0.368923 0.378106 0
0.336895 0.990596 0
0.340533 0.988246 0
0.353704 0.99012 0
0.353659 1 0
0.336908 1 0
0.336895 0.990596 0
0.0206992 0.0667606 0
0.0245011 0.0576809 0
0.029324 0.0571149 0
0.0347898 0.0652106 0
0.0279876 0.0722492 0
0.0237296 0.0713745 0
0.0206992 0.0667606 0
0.763734 0.400065 0
0.770728 0.402293 0
[...]
CELL_DATA 6400
FIELD FieldData 3
weight 1 6400 float
 0.0534828 0.0531977 0.0532241 0.0545729 0.0531618 0.0535293 0.0533659 0.0532955 0.0544651 0.0499776 0.053228 0.0534693 0.0545977 0.0533179 0.0496471 0.0534341 0.0533775 0.0543905 0.0498016 0.0533742 0.0533075 0.0499386 0.0534068 0.05345 0.050055 0.0532487 0.0544853 0.0534562 0.0533553 0.0534706 0.0500548 0.0544249 0.0536209 0.0546766 0.0533393 0.0535402 0.0498264 0.0535617 0.0546345 0.0533058 0.0498655 0.0531383 0.0535125 0.0547031 0.0494976 0.0531893 0.05474 0.0536439 0.0497034 0.0532125 0.0536322 0.0496376 0.0532772 0.0533411 0.0492865 0.0545101 0.0534693 0.0492296 0.0546842 0.0534044 0.0545553 0.0494626 0.0532897 0.0546394 0.0497002 0.0495563 0.054593 0.0496528 0.0533463 0.0494693 0.0545307 0.0553186 0.0492969 0.0535294 0.0545428 0.0534267 0.0493213 0.0536092 0.0546513 0.0553664 0.0535163 0.0544557 0.0553308 0.0509139 0.0537234 0.0545792 0.0508663 0.0536949 0.0554155 0.0544943 0.0510331 0.0536942 0.0544058 0.0535857 0.0543036 0.0507455 0.055286 0.0538135 0.0544148 0.0507256 0.055197 0.0536754 0.0543532 0.0552502 0.0538485 0.051015 0.0542577 0.0538619 0.0511312 0.053772 0.0543221 0.0553963 0.0508809 0.0538266 0.0545403 0.0508657 0.0537891 0.05543 0.0545107 0.0537456 0.0553592 0.0509443 0.0544202 0.0539076 0.0507493 0.0539316 0.0544242 0.0506562 0.0540211 0.0543894 0.0552914 0.0504989 0.054094 0.0543158 0.0553831 0.0540392 0.0505052 0.0543299 0.0539895 0.0503298 0.0543295 0.0539484 0.0542264 0.0504756 0.0553156 0.0541313 0.0541216 0.0503319 0.0541308 0.0551614 0.0541849 0.0552179 0.0506353 0.0537506 0.0540837 0.0505063 0.0538076 0.0504048 0.0542792 0.0539936 0.0551703 0.0541997 0.0551191 0.0539052 0.0503307 0.0542046 0.0550246 0.0538947 0.0511397 0.0541829 0.0539552 0.0550636 0.0510573 0.0540272 0.0540632 0.0511467 0.0541043 0.0540985 0.0550863 0.0508889 0.0540336 0.0552396 0.0541163 0.0552432 0.0509093 0.0542006 0.0539839 0.0551527 0.0511869 0.0542257 0.0539599 0.0541441 0.0540295 0.0511241 0.0551811 0.0540926 0.0538681 0.055407 0.0542181 0.0509789 0.0539163 0.0554556 0.0509233 0.0542751 0.0541493 0.0533588 0.0540831 0.0509817 0.0534495 0.0554654 0.0539566 0.0507014 0.05355 0.0553248 0.0507097 0.0534722 0.0554065 0.0539852 0.0553484 0.0534151 0.0540134 0.0536013 0.050671 0.0538915 0.0536337 0.0538739 0.0504782 0.0554647 0.0538068 0.0539364 0.0504769 0.0554376 0.0537499 0.0537759 0.0503549 0.0537256 0.0537847 0.0507526 0.0536583 0.0537316 0.0506153 0.0537939 0.0554945 0.0507687 0.0553496 0.0536627 0.0505693 0.055403 0.0543617 0.0505086 0.0542582 0.0553781 0.0552636 0.0503809 0.0542833 0.055286 0.0542548 0.055202 0.0552254 0.0500557 0.0541156 0.055332 0.0541569 0.050131 0.0552848 0.0542066 0.0498915 0.0552662 0.0539657 0.0499137 0.0540863 0.050197 0.054008 0.0553108 0.0501797 0.0540562 0.0552227 0.0499625 0.053887 0.0551915 0.0500796 0.0552425 0.05417 0.0499539 0.0496219 0.0541613 0.0549321 0.0540495 0.049692 0.0549015 0.0497451 0.0549642 0.0540763 0.0493996 0.0550019 0.0494434 0.0539579 0.0548036 0.0493937 0.0548628 0.0497261 0.0540394 0.0550635 0.0539469 0.0551195 0.0539 0.0551015 0.0537854 0.0549119 0.0550074 0.0549471 0.0549771 0.0537739 0.0550354 0.0538635 0.0538478 0.0547551 0.0548128 0.0546556 0.054685 0.0547205 0.0548571 0.0535141 0.0548849 0.0535248 0.0547727 0.0534593 0.0547309 0.0536294 0.0548192 0.0534831 0.0539368 0.0547692 0.0536957 0.0551482 0.0551667 0.0536746 0.0497143 0.0550942 0.0538368 0.0550645 0.0550124 0.0539432 0.0536326 0.055041 0.0537592 0.0538216 0.0551179 0.0538463 0.0537374 0.0551236 0.0538441 0.053919 0.0551727 0.0537329 0.0537717 0.0550501 0.0536239 0.0539576 0.0537525 0.0550576 0.053868 0.0536316 0.0498125 0.0540032 0.055111 0.0536193 0.0494376 0.0539144 0.0549615 0.0495502 0.0534863 0.0549249 0.0540023 0.0494407 0.0549026 0.0536402 0.0541234 0.0502059 0.0540623 0.0549806 0.0534336 0.0502472 0.0539558 0.0535399 0.0548082 0.0541014 0.0500136 0.0548616 0.0537688 0.0541766 0.0500051 0.0537094 0.0541672 0.0548344 0.0500942 0.0535649 0.0549845 0.0542561 0.0503665 0.053631 0.0549956 0.0543196 0.0502573 0.0549123 0.0535866 0.0543618 0.0542776 0.0501872 0.0534533 0.0548505 0.05421 0.0499396 0.0534298 0.0543098 0.0500736 0.0548565 0.0534855 0.0544141 0.0549245 0.0499794 0.0533726 0.0540054 0.0549302 0.0496371 0.0540928 0.0533095 0.0497599 0.0541573 0.0557948 0.0532796 0.0498739 0.0541518 0.0558317 0.0494481 0.0531496 0.0540325 0.0558221 0.0494394 0.0558219 0.0542711 0.0538818 0.0496262 0.0557844 0.0542112 0.0497603 0.0537477 0.0558381 0.0543524 0.0497165 0.0558394 0.0537121 0.0497501 0.0542492 0.0558409 0.0494906 0.0538385 0.0558077 0.0543758 0.0557859 0.0495192 0.0537139 0.0557816 0.0544393 0.0495 0.0557679 0.0536114 0.054308 0.0557883 0.0558047 0.0536036 0.0547578 0.0558047 0.0544808 0.0535122 0.0558247 0.0548027 0.0544078 0.0534069 0.0557904 0.0541768 0.0557946 0.0546841 0.0534912 0.0542598 0.055826 0.0543419 0.0547319 0.0534527 0.0543629 0.0558214 0.0535367 0.0542844 0.0546583 0.0558227 0.0533313 0.0542017 0.055841 0.0547901 0.0536273 0.0542758 0.0558383 0.0544504 0.0546994 0.0536915 0.0558426 0.0543619 0.0547068 0.0535847 0.0558157 0.0544236 0.0546347 0.0558204 0.0534597 0.0557928 0.0545902 0.0558277 0.0546207 0.053539 0.0546224 0.0557991 0.0545031 0.0558022 0.0535196 0.0545078 0.0545461 0.0557397 0.053449 0.0544514 0.0557438 0.0545979 0.0545293 0.0533117 0.0557243 0.0545477 0.055709 0.0546345 0.0531918 0.0557668 0.0545097 0.0543819 0.0533645 0.0557359 0.054316 0.0532348 0.0557415 0.0543973 0.0544633 0.0556332 0.0533652 0.0544175 0.0556752 0.0531458 0.0543734 0.0556769 0.0545437 0.0544238 0.0555956 0.0544587 0.05343 0.0544887 0.0556908 0.0545362 0.0532255 0.0546417 0.0557086 0.0543537 0.0545472 0.0556529 0.0533201 0.0544552 0.0556641 0.0546338 0.0543661 0.0532887 0.0556446 0.0547262 0.0533315 0.0543583 0.0557763 0.0545711 0.0531463 0.0557641 0.0546873 0.0545929 0.0532325 0.0557509 0.0545585 0.0547083 0.0557272 0.0531701 0.0547318 0.0546621 0.0530467 0.0557801 0.0546696 0.0531094 0.054521 0.0557813 0.0548126 0.0530436 0.0547436 0.0557507 0.0546076 0.0529437 0.0547029 0.0557096 0.0545912 0.053195 0.0547784 0.0556963 0.0531698 0.0544912 0.0548199 0.053055 0.055637 0.0546275 0.0549025 0.0530743 0.0556787 0.0548322 0.0556923 0.0530495 0.0545445 0.0549783 0.0557216 0.0529715 0.0549102 0.0545936 0.0556652 0.0529605 0.0549665 0.0544534 0.0530289 0.0556623 0.0549003 0.052849 0.0545212 0.0549789 0.0529477 0.0558643 0.0544715 0.0529508 0.0558694 0.0550513 0.0528449 0.0544083 0.0547195 0.055917 0.0527594 0.0544443 0.0548944 0.0528719 0.055889 0.0544173 0.055895 0.0548436 0.0543433 0.0535513 0.0558459 0.0543133 0.0547876 0.0534306 0.0558242 0.054276 0.0548697 0.0558177 0.0533649 0.0543852 0.054807 0.0558873 0.054342 0.0548865 0.0534055 0.0558498 0.0542138 0.0558731 0.0549299 0.0532964 0.0542187 0.0532905 0.0550004 0.0559432 0.0541594 0.053119 0.05504 0.0559519 0.0541804 0.0532707 0.0549699 0.0559248 0.054293 0.0531104 0.0550611 0.0559771 0.0532 0.0542872 0.0550777 0.0530572 0.0560125 0.054083 0.0544279 0.053005 0.0559841 0.0540469 0.054485 0.0559131 0.0529441 0.0541404 0.0545817 0.0559532 0.0532373 0.0542587 0.0559065 0.0545292 0.0559487 0.0542437 0.0544643 0.0559865 0.0533495 0.0541441 0.0545334 0.055946 0.0531327 0.0542524 0.05462 0.0559832 0.0541295 0.0531117 0.05472 0.0557928 0.05403 0.0546741 0.0530788 0.0557632 0.0539994 0.0546354 0.0557839 0.0540194 0.0547596 0.0532229 0.0558549 0.0539601 0.0546661 0.0558328 0.0531355 0.0539243 0.0558173 0.0547985 0.055788 0.0548254 0.0530108 0.0557363 0.053842 0.0547486 0.0557511 0.0529765 0.0545601 0.0557009 0.0537874 0.0528826 0.0544909 0.0538279 0.0556837 0.0529231 0.0546467 0.0539119 0.0557794 0.055725 0.0538651 0.0545598 0.0527957 0.0559087 0.0537934 0.0545274 0.055872 0.0529427 0.0545956 0.053713 0.0558298 0.0529719 0.0546239 0.0559164 0.054248 0.05282 0.0546784 0.0541356 0.0528228 0.0559596 0.0547047 0.0541323 0.0559213 0.0542374 0.0547737 0.0528021 0.0558671 0.0541373 0.054725 0.0526862 0.0558257 0.0540145 0.0528333 0.0547611 0.0540239 0.0557922 0.0526642 0.0541052 0.0548045 0.0527491 0.0557482 0.0526424 0.0548331 0.0558914 0.0540383 0.0549149 0.0526758 0.0558447 0.0540334 0.0549463 0.0525424 0.0539831 0.0558012 0.0548719 0.0538978 0.0525136 0.0555647 0.054943 0.0537785 0.0527636 0.0556034 0.054983 0.0538989 0.0555241 0.0526807 0.055508 0.0550218 0.0537735 0.0526952 0.0555644 0.0551014 0.0537662 0.0555783 0.0550491 0.0526729 0.0536698 0.0556178 0.0539134 0.0550202 0.0555335 0.0526143 0.0539152 0.0555832 0.0554272 0.0551347 0.0537977 0.0524735 0.0554647 0.0551009 0.0538491 0.0525604 0.0553637 0.0548518 0.0525615 0.0554371 0.0536666 0.054901 0.0554736 0.0525623 0.0549662 0.0553907 0.0523961 0.0535935 0.0549236 0.0554039 0.0524084 0.0537153 0.0554425 0.0548715 0.0524087 0.0555999 0.0549314 0.0524448 0.0544793 0.0555425 0.0549749 0.0522681 0.0555759 0.0544166 0.0550672 0.0522796 0.0556154 0.055011 0.0544146 0.0521762 0.05562 0.0551297 0.0543483 0.0555323 0.0523706 0.0550856 0.0543437 0.0555664 0.0522464 0.0554988 0.0550435 0.0542806 0.0554971 0.0520681 0.0542838 0.0551243 0.055454 0.0520701 0.0543506 0.0554878 0.0551583 0.0521895 0.0554472 0.0542791 0.0535075 0.0520681 0.0542106 0.0554303 0.0535847 0.0553256 0.0523515 0.0541593 0.0536709 0.0552737 0.052421 0.0552768 0.0535506 0.0542886 0.0553421 0.0536213 0.0525129 0.0542142 0.055344 0.0537406 0.0541467 0.0522783 0.0552808 0.0537662 0.055215 0.0541487 0.0524057 0.0551352 0.0540859 0.0538897 0.0551319 0.0523146 0.0542103 0.0551781 0.0538043 0.0519121 0.0540673 0.0550623 0.0540056 0.0519195 0.0552049 0.0540703 0.0539247 0.0519686 0.0540251 0.0550701 0.0538697 0.0520212 0.0551407 0.0539339 0.0540293 0.0521225 0.0550785 0.0539724 0.0539547 0.0517016 0.0553385 0.0535733 0.0541694 0.0518116 0.0554029 0.0536528 0.0518071 0.0552751 0.0537663 0.0552794 0.0536882 0.0542284 0.0518579 0.0536182 0.0553872 0.0521786 0.0537035 0.0541207 0.0553794 0.0538038 0.0522525 0.0541091 0.0552878 0.0538352 0.0519552 0.0553354 0.0540097 0.053886 0.0552246 0.0521083 0.0539413 0.0540735 0.0552114 0.0522549 0.0540516 0.0539413 0.0551016 0.0540292 0.0520817 0.0551471 0.0540505 0.0539624 0.0551838 0.0526661 0.0538707 0.0539792 0.055234 0.0526233 0.0541088 0.0539869 0.0551366 0.0527563 0.0556368 0.0540878 0.0538997 0.0556532 0.0541645 0.0525205 0.0555936 0.0539437 0.0540757 0.0525764 0.0538782 0.0556885 0.0542055 0.0526117 0.0555834 0.0538516 0.0541914 0.052913 0.0556463 0.0538138 0.0541289 0.0556132 0.0542935 0.0537913 0.0555353 0.0529326 0.0542684 0.0554824 0.0538441 0.0530731 0.0543608 0.0555303 0.0537546 0.0554319 0.0527944 0.0537058 0.055555 0.0527115 0.0554967 0.053633 0.0543191 0.0554885 0.0537263 0.0528854 0.0545143 0.0557456 0.0535739 0.0529873 0.0557166 0.0544401 0.0540757 0.0523622 0.0556627 0.0543974 0.0539936 0.0543614 0.0557574 0.0524159 0.0539407 0.0544458 0.0557129 0.0525423 0.053897 0.0544721 0.0557038 0.0538444 0.0524846 0.05422 0.055649 0.0538751 0.0522843 0.054134 0.0539728 0.0556023 0.0521847 0.0542734 0.0555494 0.0538723 0.0543294 0.0524367 0.0554989 0.0537748 0.0542004 0.0526261 0.0555096 0.0537362 0.054298 0.0556166 0.0537543 0.0527396 0.0544005 0.0555649 0.0537688 0.0544821 0.0528321 0.0538128 0.0555467 0.0545239 0.0536901 0.0553859 0.052718 0.0543602 0.053718 0.0553271 0.0525914 0.0544176 0.0553353 0.0536543 0.0525894 0.0554306 0.0545465 0.0535618 0.0553512 0.0515862 0.0536071 0.0553899 0.0545455 0.0515868 0.0536047 0.0552828 0.0517018 0.0552355 0.0535877 0.0544848 0.0516717 0.0551857 0.0536241 0.0534719 0.0536845 0.0551795 0.0518095 0.0534846 0.0552944 0.0537799 0.0536773 0.0515022 0.0536224 0.0514237 0.0551771 0.0538215 0.0537842 0.0516547 0.0552305 0.0536928 0.0537089 0.0518095 0.0554239 0.0536523 0.0539695 0.0554349 0.0518988 0.0534378 0.053861 0.0553559 0.0535544 0.0520557 0.0541058 0.0535647 0.055474 0.0520467 0.0539933 0.0554091 0.0535081 0.0517307 0.0540548 0.0536085 0.0554353 0.0518762 0.0538744 0.0534973 0.0513787 0.055292 0.0539599 0.0512862 0.055299 0.0540886 0.0515373 0.0534337 0.055243 0.0540128 0.051531 0.0533945 0.0536172 0.0511733 0.0551828 0.0536666 0.0533706 0.0512304 0.0552923 0.0537685 0.0553546 0.0514167 0.0534374 0.0536736 0.0513806 0.0535413 0.0552372 0.0536102 0.0516477 0.0534293 0.0560384 0.0538091 0.0518208 0.0533132 0.056016 0.0537633 0.0515329 0.0533245 0.0560338 0.0538644 0.0517166 0.0533011 0.0538999 0.0560611 0.0515884 0.0532786 0.0540947 0.0560543 0.0521727 0.0532415 0.0540794 0.0560521 0.0523083 0.0539906 0.0560112 0.0519885 0.0531834 0.0539 0.0560187 0.0522226 0.0531625 0.0521066 0.0559933 0.0540539 0.053038 0.0524574 0.0559902 0.0539763 0.0531424 0.0560379 0.0523743 0.0542315 0.0560338 0.0537108 0.0541529 0.0560206 0.0526146 0.0543003 0.0560627 0.0522029 0.0535744 0.0541821 0.056061 0.0524276 0.0536897 0.0560505 0.0541694 0.0522997 0.053574 0.054242 0.0560653 0.052417 0.0543534 0.0535 0.0543114 0.051898 0.056039 0.0560534 0.0519641 0.0544263 0.0534142 0.0520584 0.0543747 0.056036 0.0536409 0.0560411 0.0520201 0.0545388 0.0560164 0.0535591 0.0518092 0.0560245 0.0544611 0.0534755 0.0560271 0.0516628 0.0544138 0.0534094 0.0560086 0.0544851 0.0518923 0.0534929 0.0560096 0.0544832 0.0518865 0.0533962 0.0559609 0.0541671 0.0521587 0.0532602 0.0559404 0.0542376 0.0523333 0.0533331 0.0559732 0.0542942 0.052209 0.0560028 0.0532558 0.0541404 0.0559498 0.0520298 0.0542177 0.0559739 0.0531327 0.0520925 0.0542825 0.0559103 0.0531281 0.0558723 0.0522216 0.0532887 0.0542136 0.0558538 0.0533309 0.0544273 0.0531342 0.0558181 0.0532081 0.0543657 0.0559192 0.0532659 0.0531375 0.0558352 0.0545055 0.0532023 0.0532751 0.0558735 0.0536212 0.054354 0.0560056 0.0531024 0.0559852 0.0535166 0.0543452 0.0559958 0.0531152 0.0536352 0.0559729 0.0544398 0.0534236 0.0535196 0.0559856 0.0559527 0.054444 0.0533866 0.0535387 0.0559561 0.0534108 0.0545891 0.0559261 0.0533442 0.0535775 0.05467 0.0559474 0.0534563 0.054709 0.0558592 0.053533 0.0558865 0.05349 0.0545532 0.0534473 0.0559056 0.0546316 0.0533729 0.0529481 0.055929 0.0547047 0.0529183 0.053382 0.0559135 0.0547492 0.0530859 0.0532468 0.0548185 0.0558556 0.0532543 0.0527686 0.0548238 0.053125 0.0560298 0.052837 0.0548707 0.0531242 0.05601 0.0529555 0.0547745 0.0560069 0.0532911 0.0532081 0.0548912 0.0560247 0.0532335 0.0548441 0.0533013 0.0559846 0.0531998 0.0532477 0.0546084 0.0559866 0.0530969 0.0559995 0.0545906 0.0533845 0.0531321 0.0560175 0.0546614 0.0530994 0.0559848 0.0530549 0.054729 0.0530074 0.0559556 0.0546174 0.0531071 0.055985 0.0529823 0.054687 0.0559737 0.0529425 0.0532474 0.0546766 0.0559367 0.0547952 0.0530144 0.0536657 0.0547487 0.0528866 0.0559577 0.0536175 0.0548636 0.0528226 0.0559659 0.0547608 0.053795 0.055964 0.0548103 0.0530115 0.0535594 0.0559392 0.0548754 0.0530772 0.0559438 0.0535904 0.0549384 0.0530408 0.053677 0.0550171 0.0559192 0.0528838 0.0529192 0.055918 0.0550037 0.0538136 0.0559341 0.0528154 0.0549152 0.0559245 0.0527851 0.0539329 0.0549604 0.0559067 0.0550378 0.0538638 0.0528054 0.0550717 0.0558743 0.0537256 0.0526783 0.0551445 0.0559042 0.0527663 0.0559877 0.0552149 0.0538653 0.0526692 0.0559549 0.0551932 0.0537518 0.0559241 0.052539 0.0559159 0.0551089 0.053448 0.0525614 0.0559481 0.0551572 0.0533411 0.0558858 0.0526317 0.0550882 0.0534625 0.0559221 0.052737 0.0558941 0.0552275 0.0534752 0.0526786 0.0549855 0.0533041 0.0558527 0.0526344 0.0549307 0.0558929 0.0532094 0.0525911 0.0550573 0.0558891 0.0558454 0.0533228 0.0525473 0.05494 0.0558528 0.052999 0.0550768 0.0536195 0.0559071 0.0550055 0.0528982 0.0558379 0.05362 0.0550182 0.0530214 0.0558785 0.0551829 0.0558692 0.0529145 0.0537368 0.0551294 0.0528165 0.0558557 0.0534612 0.0527461 0.0558936 0.0552581 0.0535857 0.0529493 0.055831 0.0552021 0.0534407 0.052872 0.0558428 0.0552018 0.0527133 0.0557964 0.0529793 0.0551354 0.0528584 0.0528241 0.0558108 0.0546285 0.0527232 0.0525138 0.0558024 0.0546059 0.0527959 0.0525355 0.0557987 0.0546756 0.0527147 0.0527357 0.0526539 0.0545699 0.0557539 0.0526543 0.0525501 0.0545473 0.0557565 0.052627 0.054653 0.0528996 0.0557739 0.0547077 0.0524875 0.0529741 0.0557325 0.0547576 0.0525136 0.0530488 0.0548195 0.055669 0.052594 0.0548437 0.0528085 0.0525426 0.0549061 0.0558324 0.0528621 0.054888 0.0526455 0.0557872 0.0529812 0.0547449 0.0557396 0.0524178 0.0547807 0.0524487 0.0557894 0.0525022 0.0556779 0.0548455 0.0525724 0.055612 0.0545857 0.0524109 0.0522874 0.0555624 0.0546747 0.0535122 0.0524446 0.0556273 0.0545469 0.0556885 0.052697 0.0534467 0.0556356 0.0528416 0.0545246 0.053417 0.0527342 0.0555793 0.054648 0.0532883 0.0558171 0.0546143 0.0525477 0.0557771 0.0547023 0.0533543 0.0525801 0.055735 0.0547911 0.0532612 0.0526463 0.0558081 0.0533223 0.0548462 0.0531228 0.0558424 0.0534492 0.0557578 0.0531779 0.0547223 0.05332 0.055728 0.0530151 0.0547628 0.0556864 0.0533446 0.0529011 0.0548238 0.0556296 0.0531759 0.0530626 0.0549902 0.0557067 0.0531869 0.0556715 0.0549689 0.053215 0.0531787 0.0556131 0.0550532 0.0532102 0.0533177 0.0555083 0.0550744 0.053122 0.0549387 0.0533781 0.0555032 0.05312 0.0550018 0.0530928 0.0554439 0.0550905 0.0529662 0.0555233 0.0552091 0.0532522 0.0554407 0.0530392 0.0551339 0.0554555 0.0532454 0.0530233 0.053044 0.0553687 0.0552682 0.0527131 0.052957 0.052774 0.0552839 0.0552317 0.0528696 0.0529197 0.0551485 0.0528964 0.0552912 0.0551502 0.05538 0.0532054 0.0526311 0.055365 0.0552767 0.0531928 0.0527954 0.055216 0.0552932 0.0530457 0.0529592 0.0549173 0.0530366 0.0552262 0.0531189 0.0549784 0.0555798 0.0530666 0.0550536 0.0531029 0.055567 0.0530158 0.0548799 0.0555111 0.05282 0.0530405 0.0554526 0.0549139 0.0529671 0.0555562 0.0529198 0.0549702 0.0529769 0.0554974 0.0529069 0.0550447 0.0510825 0.0555108 0.055121 0.0553892 0.0510435 0.0527628 0.0553847 0.0512391 0.0551877 0.0528905 0.055317 0.0512039 0.0528907 0.0552652 0.0553057 0.0510076 0.0528941 0.0554445 0.0552083 0.0508955 0.0529035 0.0553068 0.0513797 0.0551118 0.0527466 0.05537 0.0527586 0.0514057 0.0551722 0.0558247 0.0527292 0.0514801 0.0557921 0.0527576 0.0552396 0.0511957 0.0557805 0.0526038 0.0550697 0.0514527 0.0558134 0.0527552 0.05499 0.0557624 0.0513285 0.0550821 0.0557489 0.0525963 0.0507519 0.0551529 0.0557192 0.0508776 0.0526033 0.0550719 0.0557309 0.0510541 0.0556774 0.0524581 0.0507001 0.0556492 0.0528102 0.0509063 0.0551367 0.0556914 0.0509073 0.0528867 0.0556394 0.0551926 0.0507966 0.0556193 0.0552063 0.0527028 0.0510407 0.0551407 0.0557644 0.0525635 0.0511788 0.0551577 0.0557188 0.0527135 0.0552401 0.0512654 0.0557198 0.0526884 0.0553073 0.0512949 0.0553241 0.0528079 0.0509886 0.0557053 0.0552456 0.0527287 0.0552542 0.0510717 0.0527278 0.0556602 0.0552931 0.0511461 0.052656 0.0556682 0.0553552 0.0525114 0.0517345 0.0556521 0.0551091 0.0525629 0.0516978 0.0556735 0.0551514 0.0525742 0.0518439 0.0556037 0.0552454 0.0555978 0.0524232 0.0515708 0.0551816 0.0556199 0.0524204 0.0515588 0.0551307 0.0556218 0.0517173 0.0522884 0.055185 0.0555574 0.052364 0.0552248 0.0519248 0.0555904 0.0553086 0.0524033 0.0555298 0.0520376 0.0553339 0.0555615 0.0522542 0.0518584 0.0553824 0.0555822 0.055277 0.0521406 0.0517283 0.0555068 0.0553268 0.0555035 0.051961 0.0522503 0.0553866 0.0554392 0.0514052 0.0525731 0.0553434 0.0554579 0.051356 0.0525603 0.0553753 0.0553105 0.0515397 0.0553857 0.0525727 0.0553757 0.055428 0.0511977 0.0524127 0.0554373 0.0554348 0.051299 0.0524335 0.0554253 0.0553124 0.0514495 0.0553775 0.0554794 0.0524229 0.0513713 0.0554682 0.0555412 0.0524243 0.0555163 0.0516005 0.0555255 0.0555168 0.0524484 0.0517373 0.0554808 0.0555677 0.0522939 0.0554363 0.0555777 0.0518113 0.0522773 0.0554615 0.0555278 0.0515544 0.0522952 0.055551 0.05549 0.0516825 0.0555809 0.052259 0.0554204 0.0556271 0.0522732 0.0515293 0.0553933 0.0553708 0.0506066 0.0522799 0.0556065 0.0505831 0.0553056 0.0554508 0.0520983 0.0507241 0.0553686 0.0554186 0.0521316 0.0504265 0.0553486 0.0555212 0.0505098 0.0521316 0.0554859 0.0506197 0.0554116 0.0552754 0.051999 0.0509163 0.0554597 0.0552919 0.0521035 0.0508202 0.0555312 0.0549193 0.0554903 0.0510247 0.052152 0.0550039 0.0555218 0.0508589 0.0520229 0.0555779