# vtk DataFile Version 3.0
vtk output
ASCII
DATASET UNSTRUCTURED_GRID
POINTS 25402 float
0 0 0
1 0 0
1 1 0
0 1 0
0 0 0
0 0 0
1 0 0
1 1 0
0 1 0
0 0 0
0 0 0
1 0 0
1 1 0
0 1 0
0 0 0
0 0 0
1 0 0
1 1 0
0 1 0
0 0 0
0 0 0
1 0 0
1 1 0
0 1 0
0 0 0
0 0 0
1 0 0
1 1 0
0 1 0
0 0 0
0.521498 0 0
1 0 0
1 0.84157 0
0.994371 0.832278 0
0.646962 0.229824 0
0.521498 0 0
0 0 0
1 0 0
1 1 0
0 1 0
0 0 0
0 0 0
1 0 0
1 1 0
0 1 0
0 0 0
0 0 0
1 0 0
1 1 0
0 1 0
0 0 0
0 0 0
1 0 0
1 1 0
0 1 0
0 0 0
0 0 0
1 0 0
1 1 0
0 1 0
0 0 0
0.324809 0 0
1 0 0
1 1 0
0.999786 1 0
0.600609 0.429153 0
0.324809 0 0
0 0 0
1 0 0
1 1 0
0 1 0
0 0 0
0.692724 0.467515 0
0.404846 0 0
1 0 0
1 0.929289 0
0.692724 0.467515 0
0.537583 0 0
1 0 0
1 0.848587 0
0.99076 0.8327 0
0.657318 0.229351 0
0.537583 0 0
0.536081 0 0
1 0 0
1 0.591024 0
0.770576 0.307895 0
0.536081 0 0
0 0 0
1 0 0
1 1 0
0 1 0
0 0 0
0 0 0
1 0 0
1 1 0
0 1 0
0 0 0
0 0 0
1 0 0
1 1 0
0 1 0
0 0 0
0 0 0
1 0 0
1 1 0
0 1 0
0 0 0
0 0 0
1 0 0
1 1 0
0 1 0
0 0 0
0 0 0
1 0 0
1 1 0
0 1 0
0 0 0
0 0.345162 0
0.581576 0.787664 0
0.848603 1 0
0 1 0
0 0.345162 0
0.0384871 0 0
1 0 0
1 0.580245 0
0.849969 0.492761 0
0.0384871 0 0
0 0 0
1 0 0
1 1 0
0 1 0
0 0 0
0 0 0
1 0 0
1 1 0
0 1 0
0 0 0
0 0.500065 0
0.671956 0.934352 0
0.768008 1 0
0 1 0
0 0.500065 0
0 0 0
1 0 0
1 1 0
0 1 0
0 0 0
0 0 0
1 0 0
1 1 0
0 1 0
0 0 0
0 0 0
1 0 0
1 1 0
0 1 0
0 0 0
0.612162 0 0
1 0 0
1 0.384818 0
0.612162 0 0
0 0 0
1 0 0
1 1 0
0 1 0
0 0 0
0 0.420384 0
0.6832 1 0
0 1 0
0 0.420384 0
0.410913 0 0
1 0 0
1 0.473745 0
0.410913 0 0
0 0.552545 0
0.608003 0.88964 0
0.784903 1 0
0 1 0
0 0.552545 0
0.588164 0 0
1 0 0
1 0.653825 0
0.963535 0.599569 0
0.730144 0.232319 0
0.588164 0 0
0 0.570886 0
0.60731 0.890418 0
0.791771 1 0
0 1 0
0 0.570886 0
0 0 0
1 0 0
1 1 0
0 1 0
0 0 0
0.522469 0.229258 0
0.196865 0 0
1 0 0
1 0.549115 0
0.816414 0.429072 0
0.522469 0.229258 0
0 0 0
1 0 0
1 1 0
0 1 0
0 0 0
0 0 0
1 0 0
1 1 0
0 1 0
0 0 0
0 0 0
1 0 0
1 1 0
0 1 0
0 0 0
0 0 0
1 0 0
1 1 0
0 1 0
0 0 0
0.277188 0 0
1 0 0
1 0.850862 0
0.301699 0.030703 0
0.277188 0 0
0 0 0
1 0 0
1 1 0
0 1 0
0 0 0
0 0 0
0.190036 0 0
0.641435 0.294283 0
1 0.534497 0
1 1 0
0 1 0
0 0 0
0 0 0
1 0 0
1 1 0
0 1 0
0 0 0
0 0 0
1 0 0
1 1 0
0 1 0
0 0 0
0.169711 0 0
1 0 0
1 1 0
0.966586 1 0
0.169711 0 0
0 0 0
1 0 0
1 1 0
0 1 0
0 0 0
0 0 0
1 0 0
1 1 0
0 1 0
0 0 0
0 0 0
1 0 0
1 1 0
0 1 0
0 0 0
0 0 0
0.320327 0 0
0.711112 0.258319 0
1 0.455197 0
1 1 0
0 1 0
0 0 0
0 0 0
1 0 0
1 1 0
0 1 0
0 0 0
0.611609 0.263239 0
0.447189 0 0
1 0 0
1 0.839769 0
0.717865 0.426106 0
0.611609 0.263239 0
0 0 0
1 0 0
1 1 0
0 1 0
0 0 0
0 0 0
1 0 0
1 1 0
0 1 0
0 0 0
0 0 0
1 0 0
1 1 0
0 1 0
0 0 0
0 0 0
1 0 0
1 1 0
0 1 0
0 0 0
0 0 0
1 0 0
1 1 0
0 1 0
0 0 0
0.411973 0 0
1 0 0
1 1 0
0.959301 1 0
0.411973 0 0
0 0 0
1 0 0
1 1 0
0 1 0
0 0 0
0 0 0
0.228478 0 0
0.329162 0.0789244 0
1 0.621022 0
1 1 0
0 1 0
0 0 0
0 0 0
1 0 0
1 1 0
0 1 0
0 0 0
0 0 0
1 0 0
1 1 0
0 1 0
0 0 0
0 0 0
0.174445 0 0
0.644865 0.292283 0
1 0.518995 0
1 1 0
0 1 0
0 0 0
0 0 0
1 0 0
1 1 0
0 1 0
0 0 0
0 0 0
1 0 0
1 1 0
0.91953 1 0
0 0.0887877 0
0 0 0
0 0 0
1 0 0
1 1 0
0 1 0
0 0 0
0 0 0
1 0 0
1 1 0
0 1 0
0 0 0
0 0 0
1 0 0
1 1 0
0 1 0
0 0 0
0 0 0
1 0 0
1 1 0
0 1 0
0 0 0
0 0 0
1 0 0
1 1 0
0 1 0
0 0 0
0.307582 0 0
1 0 0
1 1 0
0.971834 1 0
0.884837 0.874793 0
0.307582 0 0
0 0 0
0.359165 0 0
0.594723 0.155192 0
1 0.427151 0
1 1 0
0 1 0
0 0 0
0 0 0
1 0 0
1 1 0
0 1 0
0 0 0
0 0 0
1 0 0
1 1 0
0 1 0
0 0 0
0 0 0
1 0 0
1 1 0
0 1 0
0 0 0
0 0 0
1 0 0
1 1 0
0 1 0
0 0 0
0 0 0
1 0 0
1 1 0
0 1 0
0 0 0
0.360074 0 0
1 0 0
1 0.953925 0
0.59802 0.368828 0
0.455811 0.151384 0
0.360074 0 0
0 0 0
1 0 0
1 1 0
0 1 0
0 0 0
0 0 0
1 0 0
1 1 0
0 1 0
0 0 0
0 0 0
1 0 0
1 1 0
0 1 0
0 0 0
0 0 0
0.150003 0 0
0.638099 0.296229 0
1 0.521983 0
1 1 0
0 1 0
0 0 0
0.497739 0 0
1 0 0
1 0.866192 0
0.742395 0.437956 0
0.61692 0.218637 0
0.497739 0 0
0 0 0
1 0 0
1 1 0
0 1 0
0 0 0
0 0 0
1 0 0
1 1 0
0 1 0
0 0 0
0 0.0376665 0
0.898095 0.595921 0
1 0.661736 0
1 1 0
0 1 0
0 0.0376665 0
0 0 0
1 0 0
1 1 0
0 1 0
0 0 0
0 0 0
1 0 0
1 1 0
0 1 0
0 0 0
0 0 0
1 0 0
1 1 0
0 1 0
0 0 0
0 0 0
1 0 0
1 1 0
0 1 0
0 0 0
0.572875 0 0
1 0 0
1 0.886951 0
0.973112 0.834764 0
0.677514 0.22843 0
0.572875 0 0
0 0.0668891 0
0.897403 0.597533 0
1 0.660632 0
1 1 0
0 1 0
0 0.0668891 0
0 0 0
1 0 0
1 1 0
0 1 0
0 0 0
0 0 0
1 0 0
1 1 0
0 1 0
0 0 0
0 0 0
1 0 0
1 1 0
0 1 0
0 0 0
0 0.31794 0
0.841128 0.726359 0
1 0.807113 0
1 1 0
0 1 0
0 0.31794 0
0 0 0
1 0 0
1 1 0
0 1 0
0 0 0
0 0 0
1 0 0
1 1 0
0 1 0
0 0 0
0 0 0
1 0 0
1 1 0
0 1 0
0 0 0
0 0 0
1 0 0
1 1 0
0 1 0
0 0 0
0.628035 0.0542539 0
0.656063 0 0
1 0 0
1 1 0
0.158775 1 0
0.628035 0.0542539 0
0 0 0
1 0 0
1 1 0
0 1 0
0 0 0
0 0 0
1 0 0
1 1 0
0 1 0
0 0 0
0 0 0
1 0 0
1 1 0
0 1 0
0 0 0
0 0.186592 0
0.883014 0.639577 0
1 0.702154 0
1 1 0
0 1 0
0 0.186592 0
0.700452 0.467228 0
0.450325 0 0
1 0 0
1 0.980958 0
0.700452 0.467228 0
0 0 0
1 0 0
1 1 0
0 1 0
0 0 0
0 0 0
1 0 0
1 1 0
0 1 0
0 0 0
0 0 0
1 0 0
1 1 0
0 1 0
0 0 0
0.527069 0 0
1 0 0
1 0.893167 0
0.749526 0.437171 0
0.626936 0.201669 0
0.527069 0 0
0 0 0
1 0 0
1 1 0
0 1 0
0 0 0
0 0 0
0.0788652 0 0
1 0.728525 0
1 1 0
0 1 0
0 0 0
0 0 0
1 0 0
1 1 0
0 1 0
0 0 0
0 0 0
1 0 0
1 1 0
0 1 0
0 0 0
0.71192 0 0
1 0 0
1 1 0
0.343676 1 0
0.682445 0.0751543 0
0.71192 0 0
0 0 0
1 0 0
1 1 0
0 1 0
0 0 0
0 0 0
1 0 0
1 1 0
0 1 0
0 0 0
0 0 0
1 0 0
1 1 0
0 1 0
0 0 0
0 0 0
0.349839 0 0
0.594781 0.155178 0
1 0.416595 0
1 1 0
0 1 0
0 0 0
0 0 0
1 0 0
1 1 0
0 1 0
0 0 0
0 0 0
1 0 0
1 1 0
0 1 0
0 0 0
0 0 0
0.29405 0 0
0.681469 0.224742 0
1 0.414661 0
1 1 0
0 1 0
0 0 0
0 0 0
1 0 0
1 1 0
0 1 0
0 0 0
0 0 0
1 0 0
1 1 0
0 1 0
0 0 0
0 0 0
1 0 0
1 1 0
0 1 0
0 0 0
0 0 0
0.340436 0 0
0.662605 0.190004 0
0.765923 0.252224 0
1 0.39374 0
1 1 0
0 1 0
0 0 0
0 0 0
0.0881653 0 0
1 0.621971 0
1 1 0
0 1 0
0 0 0
0 0 0
1 0 0
1 1 0
0 1 0
0 0 0
0 0 0
1 0 0
1 1 0
0 1 0
0 0 0
0 0 0
1 0 0
1 1 0
0 1 0
0 0 0
0 0 0
1 0 0
1 1 0
0 1 0
0 0 0
0 0 0
0.0633916 0 0
0.460332 0.28954 0
1 0.697733 0
1 1 0
0 1 0
0 0 0
0 0 0
1 0 0
1 1 0
0 1 0
0 0 0
0 0 0
1 0 0
1 1 0
0 1 0
0 0 0
0 0 0
1 0 0
1 1 0
0 1 0
0 0 0
0 0 0
1 0 0
1 1 0
0 1 0
0 0 0
0 0 0
1 0 0
1 1 0
0 1 0
0 0 0
0 0 0
0.0353447 0 0
0.0674325 0.0165246 0
0.739292 0.369891 0
1 0.513254 0
1 1 0
0 1 0
0 0 0
0 0 0
1 0 0
1 1 0
0 1 0
0 0 0
0 0 0
1 0 0
1 1 0
0 1 0
0 0 0
0 0 0
1 0 0
1 1 0
0 1 0
0 0 0
0 0 0
1 0 0
1 1 0
0 1 0
0 0 0
0 0 0
0.249567 0 0
0.514818 0.15541 0
1 0.452825 0
1 1 0
0 1 0
0 0 0
0 0 0
1 0 0
1 1 0
0 1 0
0 0 0
0 0 0
1 0 0
1 1 0
0 1 0
0 0 0
0 0 0
1 0 0
1 1 0
0 1 0
0 0 0
0 0 0
1 0 0
1 1 0
0 1 0
0 0 0
0 0 0
1 0 0
1 1 0
0 1 0
0 0 0
0 0 0
1 0 0
1 1 0
0 1 0
0 0 0
0 0 0
1 0 0
1 1 0
0 1 0
0 0 0
0 0 0
1 0 0
1 1 0
0 1 0
0 0 0
0 0 0
1 0 0
1 1 0
0 1 0
0 0 0
0 0 0
1 0 0
1 1 0
0 1 0
0 0 0
0 0 0
1 0 0
1 1 0
0 1 0
0 0 0
0 0 0
1 0 0
1 1 0
0 1 0
0 0 0
0 0 0
1 0 0
1 1 0
0 1 0
0 0 0
0 0 0
1 0 0
1 1 0
0 1 0
0 0 0
0 0 0
1 0 0
1 1 0
0 1 0
0 0 0
0 0 0
1 0 0
1 1 0
0 1 0
0 0 0
0 0 0
1 0 0
1 1 0
0 1 0
0 0 0
0 0 0
1 0 0
1 1 0
0 1 0
0 0 0
0 0 0
1 0 0
1 1 0
0 1 0
0 0 0
0 0 0
1 0 0
1 1 0
0 1 0
0 0 0
0 0 0
1 0 0
1 1 0
0 1 0
0 0 0
0 0 0
1 0 0
1 1 0
0 1 0
0 0 0
0 0 0
1 0 0
1 1 0
0 1 0
0 0 0
0 0 0
1 0 0
1 1 0
0 1 0
0 0 0
0 0 0
0.31931 0 0
0.583701 0.157833 0
1 0.41091 0
1 1 0
0 1 0
0 0 0
0 0 0
1 0 0
1 1 0
0.903936 1 0
0 0.053889 0
0 0 0
0 0 0
1 0 0
1 1 0
0 1 0
0 0 0
0 0 0
1 0 0
1 1 0
0 1 0
0 0 0
0.124637 0 0
1 0 0
1 1 0
0.76864 1 0
0.761699 0.989574 0
0.124637 0 0
0.699223 0 0
1 0 0
1 0.184771 0
0.699223 0 0
0 0 0
0.294916 0 0
0.648682 0.189199 0
0.769363 0.255048 0
1 0.381554 0
1 1 0
0 1 0
0 0 0
0 0 0
1 0 0
1 1 0
0 1 0
0 0 0
0 0 0
1 0 0
1 1 0
0 1 0
0 0 0
0.205442 0 0
1 0 0
1 1 0
0.945984 1 0
0.205442 0 0
0 0 0
1 0 0
1 1 0
0 1 0
0 0 0
0 0 0
1 0 0
1 1 0
0 1 0
0 0 0
0 0 0
1 0 0
1 1 0
0 1 0
0 0 0
0.272787 0 0
1 0 0
1 1 0
0.927902 1 0
0.272787 0 0
0 0 0
0.0258 0 0
0 0.0113365 0
0 0 0
0 0 0
1 0 0
1 1 0
0 1 0
0 0 0
0 0.212194 0
0.517688 0.482412 0
0.830483 0.652576 0
1 0.749407 0
1 1 0
0 1 0
0 0.212194 0
0 0 0
1 0 0
1 1 0
0.686293 1 0
0.395848 0.594373 0
0 0.0250084 0
0 0 0
0 0.167414 0
0.889726 0.619673 0
1 0.678083 0
1 1 0
0 1 0
0 0.167414 0
0.168538 0 0
1 0 0
1 1 0
0.695039 1 0
0.26974 0.199847 0
0.168538 0 0
0 0.234214 0
0.507873 0.489125 0
0.828675 0.657109 0
1 0.751459 0
1 1 0
0 1 0
0 0.234214 0
0.0682834 0 0
1 0 0
1 1 0
0.860958 1 0
0.420522 0.458741 0
0.0682834 0 0
0 0.328622 0
0.917445 0.840107 0
1 0.888326 0
1 1 0
0 1 0
0 0.328622 0
0 0 0
0.158473 0 0
0.137635 0.0134768 0
0 0.0977165 0
0 0 0
0.705829 0.467027 0
0.468896 0 0
1 0 0
1 0.997181 0
0.705829 0.467027 0
0 0.261413 0
0.443879 0.494031 0
0.869375 0.727073 0
1 0.801839 0
1 1 0
0 1 0
0 0.261413 0
0 0 0
0.277041 0 0
0 0.146497 0
0 0 0
0.517734 0 0
1 0 0
1 1 0
0.959767 1 0
0.785292 0.620704 0
0.517734 0 0
0 0.10377 0
0.275384 0.258451 0
1 0.679285 0
1 1 0
0 1 0
0 0.10377 0
0 0 0
0.236651 0 0
0 0.115142 0
0 0 0
0 0.0457418 0
0.0752265 0.0881138 0
1 0.62121 0
1 1 0
0 1 0
0 0.0457418 0
0.710344 0 0
1 0 0
1 1 0
0.32216 1 0
0.679615 0.0745399 0
0.710344 0 0
0 0.238998 0
1 0.720346 0
1 1 0
0 1 0
0 0.238998 0
0.739344 0 0
1 0 0
1 0.165913 0
0.739344 0 0
0 0 0
0.0089911 0 0
0.450839 0.294309 0
1 0.673527 0
1 1 0
0 1 0
0 0 0
0.423523 0 0
1 0 0
1 0.876183 0
0.654467 0.358598 0
0.423523 0 0
0.898946 0 0
1 0 0
1 0.0521849 0
0.898946 0 0
0.298201 0 0
1 0 0
1 1 0
0.917782 1 0
0.298201 0 0
0 0.0556656 0
0.231772 0.195807 0
1 0.684583 0
1 1 0
0 1 0
0 0.0556656 0
0.859948 0 0
1 0 0
1 0.0781092 0
0.859948 0 0
0.391076 0.638681 0
0.678682 0.0491139 0
0.703814 0 0
1 0 0
1 1 0
0.220681 1 0
0.391076 0.638681 0
0 0 0
1 0 0
1 1 0
0 1 0
0 0 0
0 0 0
1 0 0
1 1 0
0.662768 1 0
0.448571 0.696593 0
0 0.0255814 0
0 0 0
0 0.504281 0
0.429287 0.367149 0
1 0.995225 0
1 1 0
0 1 0
0 0.504281 0
0 0 0
0.371113 0 0
0 0.189983 0
0 0 0
0.212013 0 0
1 0 0
1 1 0
0.75351 1 0
0.561288 0.659482 0
0.332636 0.236951 0
0.212013 0 0
0 0 0
1 0 0
1 1 0
0 1 0
0 0 0
0 0 0
0.199996 0 0
0 0.0811309 0
0 0 0
0 0.476345 0
0.467144 0.294471 0
1 0.882852 0
1 1 0
0 1 0
0 0.476345 0
0 0 0
0.443429 0 0
0 0.235401 0
0 0 0
0.346346 0.291141 0
0.522102 0 0
1 0 0
1 1 0
0.74076 1 0
0.737802 0.994874 0
[...]
CELL_DATA 4985
FIELD FieldData 3
weight 1 4985 float
 1.07804 1.07182 1.07183 1.07837 1.06563 1.07202 0.921996 1.07828 1.0844 1.07788 1.08415 1.07822 0.953131 1.08456 0.940873 0.91566 0.903046 1.09061 1.08454 1.0969 1.08432 1.0906 1.09069 1.0592 0.897111 1.10315 1.0906 1.03436 1.09056 1.08439 1.07788 0.865533 1.09052 1.05289 0.877998 1.05334 0.896655 1.04678 1.08433 0.88454 1.09049 1.08454 1.07817 1.09668 0.940849 1.09083 1.14686 1.09084 1.09051 0.959149 1.10324 1.09702 1.09671 1.17163 1.09672 0.928339 1.10327 1.10332 1.09668 1.1092 1.10927 0.934133 1.10934 1.14077 1.10302 1.09086 1.1719 1.09694 0.965671 1.10932 1.10293 1.18459 1.10312 1.10308 0.94665 1.16555 1.09708 1.18414 1.10301 1.19066 1.1094 0.940684 1.1908 1.10913 1.11544 1.15294 0.921932 1.10296 1.10919 1.14064 1.11568 1.10948 1.12174 1.12804 0.909599 1.12837 1.11566 1.12204 1.12189 1.09042 1.11545 1.12201 1.12834 1.09703 0.890817 1.10332 1.11577 1.10951 1.1219 0.9344 1.10936 1.10936 1.11557 0.915613 1.11571 1.13459 1.12168 1.12195 0.884598 1.11587 1.02826 1.11567 1.19045 1.03434 1.12183 1.19705 1.01561 1.12798 1.13429 1.17817 1.147 1.12831 1.12794 1.028 1.1219 1.13445 1.1281 1.03413 1.12822 1.04044 1.12211 1.18438 1.1343 1.02201 1.00318 1.00323 1.19687 1.00922 0.996728 1.1904 1.03433 1.02808 1.19085 1.04667 1.19664 1.19671 1.19665 1.02799 1.19711 0.996833 1.19697 0.978144 1.19687 1.19672 1.00304 1.19057 1.19062 1.0221 1.1843 1.01573 0.990554 1.18454 0.959501 1.19066 1.19684 0.965558 0.778352 1.19063 1.19692 1.19687 0.953341 1.19697 1.19686 1.19693 0.953341 0.740411 1.19677 1.14663 0.971928 1.16573 0.965434 1.12807 0.959615 1.10929 0.709412 0.928048 1.12821 0.759466 0.928132 1.14087 0.753375 1.15931 0.896838 1.1342 0.784255 1.15316 0.921693 0.77164 0.946719 1.17185 0.778322 0.90953 0.984554 0.965765 1.07205 0.79692 0.959315 0.978321 0.784139 1.10939 0.803001 0.959528 1.09085 0.815566 0.971664 1.10337 1.07202 0.790874 0.965511 0.953117 0.815395 1.09676 0.922109 0.840522 1.08438 0.934574 0.834602 0.921757 1.09086 0.790726 0.940692 1.18414 0.78449 0.946741 0.928301 1.17791 0.797085 0.871629 1.15932 0.82208 0.859308 0.802927 0.846683 1.19708 0.809496 0.840721 1.19043 1.19667 1.19044 0.759618 1.19707 0.865687 1.19705 1.19684 0.878123 1.19673 0.840429 1.19062 0.753031 1.19702 0.853109 1.19669 0.821967 0.771895 1.19696 0.815573 1.19706 0.828316 1.19674 0.8345 0.827982 1.19076 0.822087 1.19708 0.86572 1.19678 0.871678 1.19686 0.853203 0.878286 1.19666 0.803038 0.890746 1.1968 0.859465 0.796685 1.19701 0.840473 0.846884 1.19702 0.809215 0.821786 0.809324 1.19683 0.834349 0.815675 0.846866 0.80925 0.834361 1.19675 1.12799 1.13428 0.821987 1.13415 1.14675 0.815726 1.14053 1.14042 1.1471 0.803363 0.803296 1.14049 1.13413 1.12209 1.13424 0.790489 1.12806 0.790787 1.14051 1.14691 1.14702 1.15295 1.14681 0.796682 1.15318 1.14667 1.14072 1.13415 1.14057 0.796851 1.14711 1.14071 0.784573 1.14073 0.827908 1.12807 0.809268 1.11564 1.12203 0.790518 1.13434 1.14083 1.12825 1.11573 1.13428 1.13438 1.12165 0.853098 1.14044 1.12813 0.828007 1.1346 1.14706 1.14683 1.15315 0.846897 1.1342 1.12818 1.12207 1.14076 1.12797 0.853313 1.15293 1.15317 1.15301 1.15927 1.15957 0.865786 1.15916 1.14697 1.15297 0.759553 1.14682 1.15334 1.15313 1.15324 1.1595 1.16587 0.871664 1.15962 1.16577 1.17202 0.809596 1.15939 0.859549 1.15913 1.15928 1.16545 1.15944 1.15959 0.846726 0.790859 1.15324 0.784189 0.859236 1.15914 0.777895 1.14067 1.1408 0.853101 1.14681 1.14679 1.14666 1.14697 0.828253 1.13437 1.15307 0.759226 1.14085 1.14072 0.871752 1.15302 1.1593 1.15309 0.865399 0.728315 1.16557 1.1532 0.871703 1.14686 0.765811 1.14077 1.15289 0.86563 1.14674 1.16541 1.15936 1.15308 0.878357 0.765542 0.740449 1.12823 1.10295 0.884339 1.10332 0.7655 1.10929 0.890406 1.1155 0.877938 1.11542 1.09086 0.903353 0.890539 1.09074 1.0906 0.765569 1.10294 1.1096 0.884148 1.09666 1.12186 0.890579 1.13426 1.12163 1.13418 0.871951 1.122 1.12805 1.11541 1.10962 0.890494 0.903081 1.10945 1.11556 1.10325 0.884592 1.11575 0.896845 1.08448 0.765853 0.87181 0.878225 1.07826 1.09044 0.878366 1.07824 1.07791 1.07182 0.840416 1.05311 0.884185 1.07166 1.07188 0.827884 0.89053 1.06559 1.09695 1.08413 1.10332 0.903197 1.10947 0.821716 1.08423 1.07822 0.897047 0.859444 1.07187 1.06577 1.0904 0.903002 1.07803 1.06547 1.14052 0.81582 1.12796 1.13421 1.12823 0.840761 1.1344 0.827953 1.12792 1.12176 1.10962 0.84068 1.12182 1.11546 1.12834 0.815626 1.12179 0.834518 1.14048 1.14064 1.14669 0.846962 1.13447 0.90311 1.13462 1.13426 0.85948 1.12197 0.796647 0.915789 1.11543 0.859204 1.12807 0.859407 0.834433 1.13431 1.12789 1.10305 0.89702 1.09709 1.09087 0.828237 0.909572 1.09708 1.11544 1.10305 0.846958 1.08417 1.07211 1.06539 0.915629 1.09059 0.797104 0.890622 0.85322 0.853098 0.796902 0.790668 0.865389 0.865429 1.08425 0.81552 1.12189 0.852991 1.10961 1.10945 0.80313 1.09671 1.11563 0.878223 0.834126 1.1157 1.10334 1.10289 0.865503 0.809509 1.09692 0.871738 1.09043 1.10957 0.865665 1.09674 0.884405 0.797081 1.09062 1.17179 1.16579 0.822094 1.16554 1.17186 0.897109 1.17807 0.846918 0.796826 1.17194 0.903339 1.15941 1.16545 1.17199 0.890446 0.803126 1.16547 1.16566 1.17817 0.802978 0.871918 1.1721 1.17195 0.865543 0.803177 0.790545 1.17803 0.859211 1.17828 1.17827 0.803063 0.878292 1.17177 0.802896 1.16573 0.809279 0.884504 1.18437 1.18456 0.809508 1.17205 0.878276 1.17212 1.16581 0.822043 0.784517 1.15956 0.809572 0.784531 1.17798 1.16541 1.17208 0.815537 0.747083 1.15962 1.1531 0.828354 1.15915 0.734477 1.15936 1.15303 1.17813 1.1779 1.17195 1.17194 1.17211 1.16564 1.16562 1.15288 1.16575 1.14704 1.18417 1.18438 1.17814 1.18445 1.17825 0.790513 1.18435 1.18422 1.18436 0.809286 1.17203 1.18416 1.18424 1.19055 1.1907 1.1842 0.803333 1.19689 1.1908 1.18413 1.17803 0.821893 1.1905 1.19056 0.796885 1.19069 1.17205 1.17827 1.1655 0.765671 1.17175 1.16566 1.17192 1.15937 1.15326 1.15937 1.15958 0.74702 1.17814 1.1592 1.17797 1.17189 1.1657 0.765455 1.1779 1.1592 1.16552 0.734575 1.15932 1.1717 1.15931 1.16576 1.15294 1.1471 0.772036 1.14667 1.14674 1.14061 1.14082 0.75921 1.14083 1.12827 1.13446 1.14058 1.14667 1.14082 1.15948 1.15313 1.14699 1.14681 1.1467 0.796979 1.1343 1.14052 1.15313 1.14671 0.765668 1.14046 1.12184 1.12812 1.10937 1.1346 1.1281 1.12211 1.12179 1.10326 0.834392 1.10941 0.803218 1.1154 0.809352 1.10939 1.10307 0.821651 0.797116 1.13461 1.128 1.11543 1.13432 1.12825 0.803317 1.12188 1.11586 1.10916 1.1219 1.10915 1.11579 1.15951 1.15328 1.15321 0.815843 1.15288 1.15328 1.15317 0.821637 1.15924 0.846627 1.14674 1.14048 1.14668 1.15309 0.840563 0.784261 1.14668 0.815579 1.15935 1.15328 0.77177 1.14664 0.834217 1.16554 1.15918 0.852921 1.14065 1.1344 1.15946 0.846698 1.15297 1.15325 1.14076 0.777886 0.840444 0.803013 1.14045 0.821923 0.828251 0.821834 1.12808 0.809408 0.815438 1.12205 1.1406 1.1346 1.12832 0.809219 1.11541 1.10922 0.834202 1.12174 1.13421 0.815722 0.840657 1.11553 0.828068 1.10919 0.840763 1.14699 0.828246 1.12791 0.834298 1.14668 1.12799 0.865508 1.13458 1.12212 0.859146 1.11563 0.846699 0.884405 0.853361 1.12819 1.13428 0.865434 1.14059 0.878285 0.87189 1.1219 1.0406 0.878348 1.04686 0.853211 1.04697 1.03458 0.871783 1.05933 1.04058 0.896649 1.01578 1.00925 0.853202 1.02792 1.02195 1.01574 1.04087 0.859185 1.05333 0.87184 1.03461 1.05933 1.04691 1.03451 0.840659 1.04042 0.890843 1.02803 1.02211 0.852994 0.903261 1.00306 0.865789 1.03439 1.02791 1.0221 0.859373 0.921928 0.865565 0.903124 0.822015 0.897063 0.921916 0.809623 0.972014 0.828256 0.99066 0.859352 0.83454 0.815485 0.971844 0.859428 0.996692 0.803336 0.865558 0.978354 0.790464 0.865727 0.98433 0.877877 0.821995 0.878013 0.809424 0.934306 0.81542 0.846686 0.903223 0.953245 0.853306 0.897093 0.921956 0.84062 0.928262 0.965808 0.865828 0.934402 0.959151 0.859343 0.909369 0.947029 0.859255 0.847122 0.98446 0.915764 0.984175 0.822009 0.828331 0.940741 0.978118 0.834279 0.809367 1.01574 0.827975 0.997017 0.840448 0.809285 0.790744 1.00925 0.815611 0.903333 0.965771 0.915702 0.97169 0.909127 0.746696 0.78446 0.796858 0.922027 0.959603 0.772018 0.790651 0.927912 0.972051 0.80324 0.909566 0.990771 0.790649 0.796631 0.940462 0.809318 0.915548 0.934232 0.846676 0.803141 0.903274 1.05913 1.06568 0.834482 1.05302 0.809503 0.92201 1.06553 0.79082 0.815624 1.07194 0.921658 0.815705 1.06562 1.05936 0.796781 1.02816 1.05921 0.821679 1.04672 0.909586 0.821852 1.02207 0.847034 0.796971 1.02194 0.934269 1.05301 0.803108 1.04038 0.934149 1.07792 1.07791 1.09669 1.08449 0.778077 1.08427 1.05915 0.803222 1.05322 0.940425 0.803351 0.946922 1.04667 0.80955 0.822111 1.05298 1.07199 1.04706 1.00957 0.996645 1.01555 1.01586 1.00333 0.978203 0.946675 0.940707 0.990828 0.978071 0.984621 1.03432 0.990813 1.00933 1.0405 1.00924 1.02168 1.00331 0.984601 0.953003 0.965779 1.0154 1.00316 0.796829 0.990389 0.946915 0.809592 0.90913 0.828342 0.928295 0.828109 0.897039 0.846686 0.815439 0.940507 0.940478 0.884535 0.822058 0.815457 0.934521 0.890461 0.809224 0.815594 0.840398 0.877944 0.946691 0.821724 0.834388 0.827977 0.940854 0.853338 0.82797 0.822076 0.940831 0.840601 0.815501 0.915603 0.853367 0.82198 0.909274 0.834367 0.909501 0.909268 0.859508 0.846703 0.853373 0.865717 0.909342 0.853192 0.872106 0.828116 0.915547 0.852923 0.890613 0.840681 0.915869 0.853086 0.85914 0.921716 0.934243 0.828116 0.915423 0.903108 0.928226 0.828257 0.952979 0.8971 0.871711 0.834619 0.947 0.834453 0.915584 0.890784 0.928302 0.83418 0.928081 0.884461 0.840382 0.940479 0.915618 0.928223 0.840836 0.834462 0.921831 0.902925 0.934496 0.84706 0.865823 0.859139 0.859433 0.909609 0.859253 0.897033 0.853031 0.915745 0.903115 0.846757 0.878211 0.940532 0.865621 0.865551 0.928341 0.871905 0.928272 0.897014 0.934363 0.902993 0.803257 0.915381 0.859465 0.946983 0.809319 0.946926 0.959354 0.802955 0.815804 0.946984 0.940613 0.809208 0.815531 0.809212 0.971762 0.92201 0.815505 0.928214 0.834342 0.80299 0.965852 0.821659 0.921643 0.840537 0.840523 0.934332 0.821974 0.934231 0.934402 0.797012 0.847023 0.928153 0.965436 0.828164 0.784346 0.959423 0.815496 0.965495 0.821773 0.959215 0.753349 0.821676 0.959325 0.971951 0.827887 0.972063 0.759462 0.940479 0.953365 0.834449 0.953245 0.947077 0.828116 0.834142 0.771821 0.953163 0.965748 0.847036 0.959508 0.778243 0.853265 0.953255 0.971849 0.840788 0.965717 0.971947 0.846855 0.959413 0.978308 0.853222 0.978055 0.977884 0.82813 0.996785 0.98428 0.990718 0.859354 0.996631 0.984276 0.984486 1.00337 0.99047 0.840711 0.972058 0.821657 0.978139 0.99057 0.978243 0.846821 1.00927 0.997086 1.00303 0.797037 0.984323 0.85292 0.953258 0.847094 0.946968 0.815671 0.959551 0.971925 0.853272 0.847051 0.859325 0.978138 0.953079 0.859271 0.80313 0.871899 0.952994 0.965581 0.809618 0.85919 0.959413 0.965439 0.872054 0.778311 0.959197 0.990819 0.940618 0.884407 0.959477 0.946717 0.990598 0.877969 0.940441 1.01567 0.865602 1.02192 0.76584 0.947062 0.996707 0.952929 0.890772 1.0033 0.790397 1.02798 1.02171 1.02837 0.959159 0.903184 1.00937 0.865653 1.03444 1.04075 0.953158 1.05292 0.865526 0.977937 0.921759 0.871826 0.921884 0.878267 0.978254 1.04696 0.952953 0.872025 1.04705 0.972118 1.05309 0.878316 1.05957 1.01568 0.971909 1.04076 0.984251 0.921815 0.90309 1.02795 0.99057 1.03461 0.984416 1.03416 0.903018 1.04055 0.909549 1.04685 0.971828 1.04668 0.909595 1.05947 1.07172 0.965746 1.05302 0.87803 0.896708 1.06564 0.965743 0.840697 0.959593 0.984194 0.884433 0.965434 0.972114 0.928199 0.909537 0.978299 0.971647 0.909172 0.909471 0.890439 0.878045 0.952886 0.896825 0.96584 0.959469 0.884175 0.984487 0.902945 1.00935 0.934483 0.896751 1.02807 0.902978 0.953271 0.87829 1.03439 0.971892 0.884294 0.897053 1.02173 0.871788 0.90936 0.890474 1.00333 0.915398 0.896839 0.996858 0.89074 0.897015 1.03449 0.89085 0.884586 0.971903 0.915604 0.890391 1.00303 0.915609 0.884326 0.977897 0.93423 0.959503 0.834289 0.928144 0.984429 0.928188 0.809436 0.990732 0.921825 1.02818 0.909292 0.809212 1.04676 0.909388 0.803007 1.02205 0.903178 1.02209 0.834228 1.04698 0.902942 0.853217 1.04081 1.0406 1.05296 0.915722 0.8221 1.04704 0.821968 1.05306 1.06565 0.90927 1.05915 1.05917 0.771717 1.07821 0.878089 1.06587 1.08423 1.07164 0.871739 1.07209 0.877934 1.05324 1.05914 0.871633 1.05918 0.884157 1.05317 1.07185 0.87789 1.06564 1.06576 1.07835 0.884384 1.07823 1.07809 1.09061 0.828 1.08444 0.846769 0.871907 0.865861 0.815794 0.815851 0.840625 0.877913 0.871712 0.84075 0.872122 0.853133 0.796995 0.815623 0.890418 0.828229 0.827987 0.890498 0.79087 0.896685 0.809568 0.840602 0.909326 0.846727 0.76562 0.89682 0.790566 0.902954 1.1029 0.859375 1.09076 0.815452 1.09058 0.884563 1.07821 0.853137 1.09702 0.790824 1.08434 0.877918 1.09695 0.815709 0.846629 0.865529 1.07163 0.859158 0.809471 1.05333 0.890768 0.821803 0.896836 1.0717 0.871717 0.884461 0.821685 1.06582 0.834226 0.940855 1.05306 1.09664 0.827922 1.10336 0.946851 0.84045 1.08439 0.940721 0.815716 1.10318 0.959558 0.821698 0.947098 1.09039 0.853225 0.828307 0.953102 1.09074 0.82821 0.834606 1.07825 0.922072 0.834345 0.871871 1.06542 0.840783 0.928339 0.890566 1.07199 0.840552 0.921935 0.921785 1.05333 0.846685 0.884619 0.915425 0.846662 1.0593 0.909399 0.847014 0.934459 1.04671 0.940465 0.853036 0.934601 1.02789 0.946954 0.847027 0.927918 1.03423 0.85941 0.934591 0.965541 1.04664 0.853088 0.959413 0.953118 0.81581 0.953101 1.05934 0.965529 0.828268 0.965849 0.821738 0.940669 1.04059 0.977896 0.984289 0.8342 1.03452 0.946769 0.971842 0.828081 0.990431 0.940781 0.877889 0.834245 0.996906 0.934458 0.890846 1.0033 0.84073 0.915798 0.947101 0.984262 0.822043 0.865409 0.965627 0.92196 1.05917 0.821906 0.97183 0.884287 1.04068 0.834135 0.959167 1.04055 0.928222 0.834211 1.0468 0.915645 0.828259 0.978274 1.02809 0.846709 0.909518 1.03438 0.953196 0.840811 1.02799 0.840682 0.934603 0.928351 0.977911 0.853165 0.971986 0.927877 0.984168 0.847099 0.971976 0.996981 0.921664 0.85931 0.859223 0.934189 1.00923 0.853266 0.90299 0.978215 0.85289 0.997091 0.878024 0.865386 1.10328 0.909276 1.10934 0.859382 1.09086 0.915523 0.840455 0.871942 1.10303 0.921694 0.859364 1.09668 0.909569 0.859168 0.865757 1.09676 0.884257 0.902965 1.07807 0.940846 1.08424 0.934176 0.727947 1.0596 0.940405 1.07806 0.953113 1.06581 0.940492 1.0967 0.947117 0.859494 1.07197 0.928101 0.852959 1.09066 0.915601 0.871704 1.10333 0.896809 1.08439 0.871946 0.777987 0.934383 0.878272 1.09682 0.921945 1.0907 0.896875 0.796948 0.915653 1.0783 0.909356 0.784245 0.859568 1.05308 0.903083 1.07208 0.790421 0.915777 1.07194 0.803067 0.896651 1.05953 0.934212 0.828177 1.04665 0.959507 0.809598 0.965551 1.01557 0.94047 1.04071 0.797 0.946878 1.05305 0.965816 0.815552 1.02176 0.803173 0.878154 1.02826 0.765694 0.890507 1.02171 0.790636 0.984247 0.903314 0.809162 0.990536 0.884526 0.827882 1.00295 0.909134 0.797086 0.921963 0.978126 0.927959 0.965825 0.990751 0.959415 0.772119 0.953088 1.04684 0.703292 0.934285 1.03448 0.978323 1.0468 0.978334 0.778187 0.990843 1.02173 0.753162 0.996766 1.06585 0.74688 1.0408 1.00309 1.00954 1.00947 1.00914 0.715789 1.01559 0.977935 1.01585 1.01553 1.03428 0.996996 0.759577 1.04077 0.965436 0.765856 1.04062 0.79672 1.04699 0.959517 0.990765 0.772002 0.928116 0.990638 0.802995 0.997109 1.00932 0.934282 0.784499 0.996695 0.915689 0.815417 0.946735 0.82175 1.0031 0.884437 0.834342 0.871672 1.01574 1.02821 0.846761 0.822027 1.04062 0.865537 0.809372 0.796839 0.915669 1.02212 0.90312 0.790649 0.802905 0.896805 1.02208 0.865598 0.815746 1.03454 0.9405 0.796955 0.92807 0.771826 0.784241 1.05956 0.934502 1.07197 0.809568 0.82801 0.971974 1.07797 0.815498 0.947022 0.821744 0.803317 1.06542 0.909215 0.809166 0.921756 1.05332 0.80926 0.790497 0.89057 0.840854 1.07195 1.08416 0.902894 1.10294 0.834479 1.09066 0.909199 1.08433 0.903115 1.09685 0.815633 0.79705 1.09701 1.09065 0.846796 0.896649 1.07209 0.847053 0.859269 0.822016 0.84081 1.08418 0.84075 1.05961 0.828148 0.81558 0.821836 0.81556 0.853209 0.822074 1.07795 0.865707 0.815437 1.07837 0.859236 1.09073 1.0971 0.865446 1.1032 0.828027 0.853139 0.83446 0.840675 1.08434 0.859512 1.09055 0.834521 0.827903 0.871718 0.978029 0.878337 0.809212 0.98414 0.871926 0.796638 0.997095 0.865498 0.809422 0.996725 0.802993 0.877927 1.0095 0.822008 0.884549 1.02826 0.796869 0.890599 1.03456 0.846914 1.04704 0.890833 0.853065 1.01581 0.759423 0.877936 1.01539 0.759372 0.877997 0.878322 1.05304 0.884464 1.04085 0.884159 0.971934 1.00288 0.890737 0.965811 0.828128 0.990752 0.765793 0.840485 0.984473 0.946702 0.828321 0.940485 1.00918 0.75915 0.959204 1.0344 0.847045 1.04054 0.953263 0.86569 0.790756 1.00303 0.85916 0.896863 0.853002 1.02814 0.790768 0.921845 0.834484 1.03444 0.884549 1.05309 0.928329 0.840795 1.06571 0.890639 0.840744 1.07812 0.884458 1.07182 0.972024 0.834414 1.06571 0.965675 0.865588 1.06565 0.934573 0.859459 1.07189 0.971772 1.08423 0.965598 0.846993 1.09052 0.934612 0.853033 1.07813 0.940755 0.87163 1.08413 0.877958 0.871746 1.10294 0.921668 0.88417 0.915671 1.05946 0.903179 0.890423 1.05916 0.940556 1.0655 0.92821 0.884524 0.896848 1.05325 0.859216 0.890531 1.05962 0.84701 0.89039 0.840692 1.07822 0.865814 1.09705 0.877946 1.09692 0.872083 1.09055 0.87835 1.0845 0.88439 1.09055 1.05937 1.0721 0.884577 1.06538 0.852998 1.07201 0.890795 1.0779 0.89698 0.859532 1.07833 1.09046 1.08436 1.08461 0.840408 1.09076 1.09046 0.878118 1.09688 1.06585 1.07177 0.871943 1.07822 1.0904 0.853221 1.08448 1.09691 1.10305 1.09664 1.09681 0.847105 0.85962 0.871858 0.865678 0.859139 1.09079 0.853271 1.10917 1.09703 0.865755 1.10298 1.09042 1.10299 0.871924 1.10939 1.10923 1.11548 0.872058 1.1092 1.10924 1.11575 1.11547 1.19068 1.12185 0.87818 1.10328 1.10938 1.1906 1.11555 1.11587 1.19073 1.1156 0.872051 1.12174 1.19664 1.12176 1.19669 1.1283 1.19668 1.12207 1.12803 0.878342 1.12799 1.18448 1.09056 1.17837 1.172 1.19064 1.08442 0.865709 1.09676 1.17797 1.0906 1.0967 1.16585 0.878318 1.10949 1.19062 1.19071 0.884606 1.10305 0.871628 1.10302 1.18452 1.10927 1.12195 0.884377 1.19068 1.11547 1.1846 0.884398 1.09666 1.19674 1.08446 1.10302 1.18459 1.09694 1.17173 1.10295 0.890538 1.1094 1.122 1.17196 1.1155 0.884138 1.17793 1.1093 1.17203 1.12203 0.890852 1.16538 1.11586 1.16557 1.1096 1.17163 0.897078 1.12168 1.12836 1.16581 1.11578 1.17203 0.896972 1.1219 1.17206 1.12804 1.16541 1.13456 1.17803 1.13433 1.15934 0.896899 1.12837 1.16542 1.14667 1.17207 1.14078 1.17813 1.12816 0.865482 1.17814 1.12801 1.17813 1.19039 1.1343 0.871636 1.12813 1.13422 1.14042 1.14692 1.18452 1.13442 0.865575 1.14053 1.17179 1.14703 1.17805 0.871792 1.14071 1.17815 1.15302 1.17193 1.17176 1.11577 1.18435 0.878368 1.19705 1.12193 1.19084 1.18416 1.12187 0.88445 1.19711 1.1281 1.1969 1.12789 0.878109 1.1906 1.12821 1.17833 1.12212 1.17831 1.1344 0.890564 1.18423 1.13456 1.18429 1.12819 1.17803 1.13427 0.88436 1.14066 1.19668 1.1342 1.13423 1.19039 1.13419 1.19065 0.890835 1.13437 1.1904 1.19665 0.759308 1.18459 1.13436 0.903129 1.14066 1.19087 1.18462 1.14071 0.896841 1.19069 1.14082 1.14671 1.17811 1.14051 1.18423 0.896688 1.14059 1.1471 1.17799 1.13432 1.17833 1.1404 1.18437 1.1404 1.17816 0.909518 1.14073 1.18422 1.17834 1.13448 1.17817 1.12827 0.902928 1.13415 1.18427 1.14045 1.17814 1.12823 0.890874 1.13418 1.18448 1.1405 1.18439 1.13435 1.19049 1.14062 0.909549 1.13456 1.14062 0.896837 1.14702 1.1782 1.14704 1.14707 1.19056 1.14687 0.90945 1.14064 1.19065 1.1407 0.915786 1.15325 1.19084 1.19052 1.14673 1.16541 1.14697 1.19074 1.14056 0.921689 1.14688 1.14038 1.14682 0.909332 1.15307 1.16559 1.14689 0.903123 1.16541 1.15322 1.1717 0.915476 1.16573 1.14676 1.17167 1.14687 1.16546 0.915583 1.16571 1.15942 1.15334 1.14663 0.928098 1.15294 1.14712 1.15307 1.1469 1.16545 1.15942 1.15918 0.921933 1.15931 1.15947 1.17168 1.15305 1.16583 1.15961 1.1467 0.890862 1.17832 1.15297 1.15955 0.903024 1.15919 1.14702 1.15292 1.14705 0.890835 1.15308 1.153 1.15295 0.89679 1.15322 1.14683 1.15315 1.15333 1.15297 1.14074 1.15288 0.903024 1.15314 1.12804 1.15325 0.909209 1.15926 1.12817 1.15926 1.15334 1.1529 1.140