# vtk DataFile Version 3.0
vtk output
ASCII
DATASET UNSTRUCTURED_GRID
POINTS 44487 float
0.00393427 0 0
0.0170175 0 0
0.0176105 0.0114595 0
0.0148439 0.0136618 0
0.0100869 0.0132934 0
0.00393427 0 0
0 0 0
0.00393427 0 0
0.0100869 0.0132934 0
0.00360237 0.0193054 0
0 0.0198063 0
0 0 0
0.0170175 0 0
0.0290827 0 0
0.027397 0.0132826 0
0.0176105 0.0114595 0
0.0170175 0 0
0.00360237 0.0193054 0
0.0100869 0.0132934 0
0.0148439 0.0136618 0
0.0180591 0.0264973 0
0.0174973 0.0275921 0
0.013237 0.0293241 0
0.00360237 0.0193054 0
0 0.0198063 0
0.00360237 0.0193054 0
0.013237 0.0293241 0
0.0100656 0.0334144 0
0 0.0342199 0
0 0.0198063 0
0.0335656 0.0325067 0
0.0233662 0.033843 0
0.0174973 0.0275921 0
0.0180591 0.0264973 0
0.0271177 0.0217066 0
0.0354149 0.0279758 0
0.0335656 0.0325067 0
0.0148439 0.0136618 0
0.0176105 0.0114595 0
0.027397 0.0132826 0
0.0282417 0.0141482 0
0.0271177 0.0217066 0
0.0180591 0.0264973 0
0.0148439 0.0136618 0
0.0386521 0.0135001 0
0.0481446 0.0124699 0
0.0493459 0.0134332 0
0.0481849 0.0261227 0
0.0451848 0.0274626 0
0.0391961 0.0260305 0
0.0386521 0.0135001 0
0.0382864 0.0132267 0
0.0378462 0 0
0.0487579 0 0
0.0481446 0.0124699 0
0.0386521 0.0135001 0
0.0382864 0.0132267 0
0.0282417 0.0141482 0
0.0382864 0.0132267 0
0.0386521 0.0135001 0
0.0391961 0.0260305 0
0.0354149 0.0279758 0
0.0271177 0.0217066 0
0.0282417 0.0141482 0
0.447276 0.469561 0
0.453584 0.473518 0
0.453226 0.483363 0
0.445372 0.485969 0
0.439708 0.481841 0
0.439815 0.473953 0
0.447276 0.469561 0
0.976945 0.442997 0
0.981674 0.436718 0
0.989835 0.437803 0
0.990408 0.448673 0
0.989171 0.449699 0
0.978541 0.448177 0
0.976945 0.442997 0
0.0290827 0 0
0.0378462 0 0
0.0382864 0.0132267 0
0.0282417 0.0141482 0
0.027397 0.0132826 0
0.0290827 0 0
0.453226 0.483363 0
0.453584 0.473518 0
0.461996 0.469877 0
0.466701 0.473847 0
0.46671 0.48221 0
0.458859 0.486821 0
0.453226 0.483363 0
0.0481446 0.0124699 0
0.0487579 0 0
0.0584906 0 0
0.0588965 0.0123881 0
0.0579232 0.0133474 0
0.0493459 0.0134332 0
0.0481446 0.0124699 0
0.989835 0.437803 0
0.993398 0.434379 0
1 0.434749 0
1 0.448898 0
0.990408 0.448673 0
0.989835 0.437803 0
0.0481849 0.0261227 0
0.0493459 0.0134332 0
0.0579232 0.0133474 0
0.0598555 0.0245841 0
0.0547442 0.0275399 0
0.0481849 0.0261227 0
0.445372 0.485969 0
0.453226 0.483363 0
0.458859 0.486821 0
0.459424 0.49352 0
0.450762 0.499881 0
0.444148 0.494004 0
0.445372 0.485969 0
0.973712 0.475851 0
0.970168 0.471447 0
0.971167 0.4666 0
0.979693 0.462667 0
0.981355 0.463242 0
0.984951 0.472133 0
0.979727 0.476523 0
0.973712 0.475851 0
0.0366515 0.0399867 0
0.0335656 0.0325067 0
0.0354149 0.0279758 0
0.0391961 0.0260305 0
0.0451848 0.0274626 0
0.0452364 0.0390502 0
0.0390158 0.0409905 0
0.0366515 0.0399867 0
0.0451848 0.0274626 0
0.0481849 0.0261227 0
0.0547442 0.0275399 0
0.0563799 0.0380712 0
0.0495028 0.0410653 0
0.0452364 0.0390502 0
0.0451848 0.0274626 0
0.967832 0.452943 0
0.976087 0.451492 0
0.979693 0.462667 0
0.971167 0.4666 0
0.965603 0.460358 0
0.967832 0.452943 0
0.434716 0.505373 0
0.434829 0.497823 0
0.444148 0.494004 0
0.450762 0.499881 0
0.450662 0.504391 0
0.442762 0.509559 0
0.434716 0.505373 0
0.0547442 0.0275399 0
0.0598555 0.0245841 0
0.0647589 0.0257844 0
0.0665737 0.0372333 0
0.0613142 0.0400626 0
0.0563799 0.0380712 0
0.0547442 0.0275399 0
0.981355 0.463242 0
0.989057 0.457761 0
0.998542 0.46423 0
0.987578 0.472587 0
0.984951 0.472133 0
0.981355 0.463242 0
0.458859 0.486821 0
0.46671 0.48221 0
0.473669 0.486154 0
0.473661 0.495134 0
0.46594 0.498209 0
0.459424 0.49352 0
0.458859 0.486821 0
0.00495569 0.0477585 0
0.0122094 0.0401811 0
0.0185112 0.0426268 0
0.0167188 0.0550477 0
0.0118545 0.0558845 0
0.00495569 0.0477585 0
0.990408 0.448673 0
1 0.448898 0
1 0.464199 0
0.998542 0.46423 0
0.989057 0.457761 0
0.989171 0.449699 0
0.990408 0.448673 0
0 0.0342199 0
0.0100656 0.0334144 0
0.0122094 0.0401811 0
0.00495569 0.0477585 0
0 0.0472667 0
0 0.0342199 0
0.0174973 0.0275921 0
0.0233662 0.033843 0
0.0214766 0.041622 0
0.0185112 0.0426268 0
0.0122094 0.0401811 0
0.0100656 0.0334144 0
0.013237 0.0293241 0
0.0174973 0.0275921 0
0.459424 0.49352 0
0.46594 0.498209 0
0.465116 0.507291 0
0.457292 0.510079 0
0.450662 0.504391 0
0.450762 0.499881 0
0.459424 0.49352 0
0.942701 0.46364 0
0.949251 0.469576 0
0.947007 0.477813 0
0.942015 0.47929 0
0.934392 0.469423 0
0.937591 0.465006 0
0.942701 0.46364 0
0.0167188 0.0550477 0
0.0185112 0.0426268 0
0.0214766 0.041622 0
0.0282733 0.0458689 0
0.0287054 0.0541322 0
0.0205269 0.0568478 0
0.0167188 0.0550477 0
0.466701 0.473847 0
0.476419 0.470514 0
0.480933 0.473967 0
0.481404 0.482191 0
0.473669 0.486154 0
0.46671 0.48221 0
0.466701 0.473847 0
0.949251 0.469576 0
0.955881 0.468148 0
0.960965 0.474016 0
0.959346 0.480506 0
0.953335 0.483304 0
0.947007 0.477813 0
0.949251 0.469576 0
0.0233662 0.033843 0
0.0335656 0.0325067 0
0.0366515 0.0399867 0
0.0282733 0.0458689 0
0.0214766 0.041622 0
0.0233662 0.033843 0
0.480933 0.473967 0
0.490461 0.469747 0
0.496404 0.475306 0
0.49357 0.483973 0
0.487169 0.485618 0
0.481404 0.482191 0
0.480933 0.473967 0
0 0.0472667 0
0.00495569 0.0477585 0
0.0118545 0.0558845 0
0.00806343 0.0628375 0
0 0.0620685 0
0 0.0472667 0
0.94148 0.491095 0
0.937721 0.486079 0
0.942015 0.47929 0
0.947007 0.477813 0
0.953335 0.483304 0
0.951923 0.490477 0
0.951643 0.490672 0
0.94148 0.491095 0
0.00806343 0.0628375 0
0.0118545 0.0558845 0
0.0167188 0.0550477 0
0.0205269 0.0568478 0
0.0202661 0.0662908 0
0.015225 0.0695189 0
0.0119152 0.0693657 0
0.00806343 0.0628375 0
0.473669 0.486154 0
0.481404 0.482191 0
0.487169 0.485618 0
0.485505 0.497342 0
0.479659 0.499091 0
0.473661 0.495134 0
0.473669 0.486154 0
0.960965 0.474016 0
0.970168 0.471447 0
0.973712 0.475851 0
0.967837 0.487905 0
0.959346 0.480506 0
0.960965 0.474016 0
0.0202661 0.0662908 0
0.0205269 0.0568478 0
0.0287054 0.0541322 0
0.0316969 0.0559152 0
0.033276 0.0613996 0
0.0277698 0.0685558 0
0.0202661 0.0662908 0
0.0282733 0.0458689 0
0.0366515 0.0399867 0
0.0390158 0.0409905 0
0.0405138 0.0517482 0
0.0316969 0.0559152 0
0.0287054 0.0541322 0
0.0282733 0.0458689 0
0.487169 0.485618 0
0.49357 0.483973 0
0.500813 0.490148 0
0.500385 0.495153 0
0.491043 0.500175 0
0.485505 0.497342 0
0.487169 0.485618 0
0.0390158 0.0409905 0
0.0452364 0.0390502 0
0.0495028 0.0410653 0
0.0511014 0.051859 0
0.0459954 0.0543149 0
0.0405138 0.0517482 0
0.0390158 0.0409905 0
0.938427 0.499317 0
0.94148 0.491095 0
0.951643 0.490672 0
0.950523 0.503932 0
0.943854 0.505251 0
0.938427 0.499317 0
0.0495028 0.0410653 0
0.0563799 0.0380712 0
0.0613142 0.0400626 0
0.0614272 0.049713 0
0.0540779 0.0528458 0
0.0511014 0.051859 0
0.0495028 0.0410653 0
0.503799 0.00892908 0
0.504648 0 0
0.518066 0 0
0.518083 0.00527306 0
0.509673 0.0128213 0
0.503799 0.00892908 0
0.951923 0.490477 0
0.964274 0.494747 0
0.959598 0.505134 0
0.955714 0.506625 0
0.950523 0.503932 0
0.951643 0.490672 0
0.951923 0.490477 0
0.0316969 0.0559152 0
0.0405138 0.0517482 0
0.0459954 0.0543149 0
0.04448 0.0661635 0
0.0433324 0.06648 0
0.033276 0.0613996 0
0.0316969 0.0559152 0
0.503799 0.00892908 0
0.509673 0.0128213 0
0.510082 0.0154636 0
0.504193 0.0236091 0
0.494253 0.016256 0
0.495075 0.0118821 0
0.503799 0.00892908 0
0.0540779 0.0528458 0
0.0614272 0.049713 0
0.0667132 0.0525304 0
0.0683577 0.0614265 0
0.0560669 0.062614 0
0.0540779 0.0528458 0
0.953335 0.483304 0
0.959346 0.480506 0
0.967837 0.487905 0
0.967933 0.48831 0
0.96491 0.494437 0
0.964274 0.494747 0
0.951923 0.490477 0
0.953335 0.483304 0
0.52274 0.0189363 0
0.52518 0.0116878 0
0.529457 0.0102326 0
0.538424 0.0187543 0
0.536531 0.0236264 0
0.530721 0.0252012 0
0.52274 0.0189363 0
0.04448 0.0661635 0
0.0459954 0.0543149 0
0.0511014 0.051859 0
0.0540779 0.0528458 0
0.0560669 0.062614 0
0.0535095 0.0666794 0
0.0480235 0.0677117 0
0.04448 0.0661635 0
0.973712 0.475851 0
0.979727 0.476523 0
0.982512 0.487706 0
0.9795 0.490029 0
0.967933 0.48831 0
0.967837 0.487905 0
0.973712 0.475851 0
0.069111 0.0126974 0
0.0703127 0 0
0.0792886 0 0
0.0812283 0.0121648 0
0.0698174 0.013423 0
0.069111 0.0126974 0
0.509673 0.0128213 0
0.518083 0.00527306 0
0.52518 0.0116878 0
0.52274 0.0189363 0
0.518894 0.0206744 0
0.510082 0.0154636 0
0.509673 0.0128213 0
0.998542 0.46423 0
1 0.464199 0
1 0.481129 0
0.993176 0.48057 0
0.987578 0.472587 0
0.998542 0.46423 0
0.0584906 0 0
0.0703127 0 0
0.069111 0.0126974 0
0.0588965 0.0123881 0
0.0584906 0 0
0.518066 0 0
0.534554 0 0
0.534549 0.000276567 0
0.529457 0.0102326 0
0.52518 0.0116878 0
0.518083 0.00527306 0
0.518066 0 0
0.0579232 0.0133474 0
0.0588965 0.0123881 0
0.069111 0.0126974 0
0.0698174 0.013423 0
0.0701025 0.022938 0
0.0647589 0.0257844 0
0.0598555 0.0245841 0
0.0579232 0.0133474 0
0.979727 0.476523 0
0.984951 0.472133 0
0.987578 0.472587 0
0.993176 0.48057 0
0.986968 0.488177 0
0.982512 0.487706 0
0.979727 0.476523 0
0.0698174 0.013423 0
0.0812283 0.0121648 0
0.0837632 0.0142713 0
0.0838714 0.0187004 0
0.0757507 0.0251138 0
0.0701025 0.022938 0
0.0698174 0.013423 0
0.96491 0.494437 0
0.967933 0.48831 0
0.9795 0.490029 0
0.979351 0.499797 0
0.974555 0.502103 0
0.96491 0.494437 0
0.497268 0.031677 0
0.504375 0.0262756 0
0.510953 0.0311322 0
0.508071 0.0433462 0
0.497299 0.0377042 0
0.497268 0.031677 0
0.0837632 0.0142713 0
0.091671 0.00994737 0
0.0981625 0.01284 0
0.0951302 0.0232825 0
0.0896882 0.0238985 0
0.0838714 0.0187004 0
0.0837632 0.0142713 0
0.0792886 0 0
0.0904784 0 0
0.091671 0.00994737 0
0.0837632 0.0142713 0
0.0812283 0.0121648 0
0.0792886 0 0
0.982512 0.487706 0
0.986968 0.488177 0
0.991817 0.494539 0
0.987782 0.503289 0
0.979351 0.499797 0
0.9795 0.490029 0
0.982512 0.487706 0
0.504375 0.0262756 0
0.504193 0.0236091 0
0.510082 0.0154636 0
0.518894 0.0206744 0
0.516229 0.0298066 0
0.510953 0.0311322 0
0.504375 0.0262756 0
0.0665737 0.0372333 0
0.0647589 0.0257844 0
0.0701025 0.022938 0
0.0757507 0.0251138 0
0.0780503 0.032726 0
0.0695714 0.0379187 0
0.0665737 0.0372333 0
0.986968 0.488177 0
0.993176 0.48057 0
1 0.481129 0
1 0.493771 0
0.991817 0.494539 0
[...]
CELL_DATA 6400
FIELD FieldData 3
weight 1 6400 float
 0.0528494 0.052804 0.0529387 0.0528875 0.0528537 0.0530178 0.0529521 0.0531072 0.0530577 0.0530361 0.0547218 0.0527848 0.0529962 0.0547287 0.0531307 0.052703 0.05318 0.0546547 0.0527098 0.0531211 0.0532013 0.0528091 0.0545941 0.0532703 0.0526524 0.0546762 0.05299 0.0526401 0.0528943 0.0529752 0.0546118 0.0529691 0.0530564 0.054746 0.0528655 0.053069 0.0547571 0.0529305 0.0528749 0.053028 0.0546863 0.0527545 0.0531199 0.0531409 0.0546791 0.0532013 0.0528109 0.0532714 0.0548668 0.0527377 0.0531992 0.0549164 0.053354 0.0527549 0.054927 0.0532768 0.0526654 0.0532897 0.0549061 0.0525738 0.0532145 0.054855 0.0532494 0.0526053 0.0533311 0.0526113 0.0549911 0.0534347 0.0533517 0.0525369 0.054949 0.0533394 0.0525151 0.0549648 0.0534148 0.0548701 0.0524301 0.0535006 0.0548945 0.0535107 0.0548906 0.0524651 0.0534325 0.054844 0.0535672 0.0523845 0.0535146 0.0549754 0.0525612 0.0535922 0.0549792 0.0549376 0.0536714 0.0525082 0.0549251 0.0536647 0.0524387 0.0535949 0.054999 0.052254 0.053361 0.0550478 0.0523265 0.0534217 0.0550181 0.0535037 0.0523489 0.0534435 0.0550687 0.0524548 0.053511 0.0535216 0.0551112 0.0526289 0.0535783 0.0550923 0.0536681 0.0526146 0.0550652 0.0537569 0.0527475 0.0550309 0.0536931 0.0527789 0.0549676 0.0536902 0.0550099 0.053615 0.0525273 0.0501617 0.0501086 0.0526569 0.0500982 0.0526496 0.0502828 0.0521997 0.0503982 0.0522818 0.0502895 0.0523553 0.050165 0.0520658 0.0501138 0.055056 0.0521523 0.0501736 0.0537562 0.0522611 0.0525172 0.0529571 0.0523954 0.0550705 0.0545989 0.052574 0.0530703 0.0550222 0.053121 0.0523171 0.0548144 0.0545637 0.0530925 0.054803 0.0524287 0.0530089 0.0545955 0.0548744 0.0525393 0.0532196 0.0549095 0.0524257 0.0531701 0.0545336 0.0548911 0.0548486 0.0531914 0.0528609 0.0547738 0.0544637 0.0532753 0.0548198 0.0529483 0.0545143 0.0533485 0.0547403 0.0544486 0.0530239 0.0547842 0.0533862 0.0527326 0.0548416 0.0545588 0.0534421 0.0548881 0.0528345 0.0533126 0.0545267 0.0548543 0.0534702 0.0528281 0.0544818 0.0547893 0.0533818 0.0549512 0.0544196 0.05294 0.0530554 0.0549401 0.0544455 0.0530739 0.0530722 0.0549711 0.0531656 0.05438 0.0549945 0.0531748 0.0532372 0.0543824 0.055045 0.0531986 0.0543352 0.0531809 0.0550136 0.0531007 0.054911 0.052957 0.0543088 0.0531451 0.0548684 0.0542648 0.0532473 0.0530463 0.0549208 0.0532673 0.0543915 0.0549641 0.0531438 0.053338 0.0543493 0.0549148 0.0542447 0.0535013 0.0549639 0.0543095 0.0534097 0.0542768 0.0551354 0.0533577 0.0545354 0.0551269 0.0533447 0.0545705 0.0551634 0.05353 0.0544843 0.0530692 0.0534503 0.052687 0.0544937 0.0552015 0.054441 0.0526819 0.0534943 0.0544062 0.0528284 0.0551601 0.0535728 0.0544428 0.0528247 0.0550958 0.0535983 0.0551187 0.0525839 0.0536802 0.0544775 0.055102 0.0527124 0.0535303 0.0543524 0.0551719 0.0536321 0.0526691 0.0551363 0.0536527 0.0543842 0.0551453 0.0529641 0.0537487 0.0543894 0.0530188 0.0543033 0.0552371 0.0537899 0.052843 0.0543534 0.0537447 0.0552194 0.0528851 0.054248 0.0538152 0.0552291 0.0542077 0.0529889 0.0552006 0.0538561 0.0542605 0.0521182 0.0552568 0.0536472 0.0543089 0.0521758 0.0535679 0.0542641 0.0521926 0.0552681 0.0537117 0.0519644 0.0542978 0.0552335 0.0537316 0.0519462 0.054209 0.0552673 0.0520497 0.0541702 0.0551907 0.0536194 0.0520543 0.0552114 0.0542103 0.0535947 0.0522819 0.0551663 0.0522953 0.0537595 0.054224 0.055205 0.0536832 0.0524487 0.0541939 0.0552302 0.0537924 0.0521616 0.05414 0.0552445 0.0538643 0.0521726 0.05414 0.0550829 0.0538214 0.0523546 0.0540508 0.0550984 0.0550568 0.0523249 0.05388 0.0540575 0.0551385 0.0519078 0.0541959 0.0551255 0.0541306 0.0518267 0.0539544 0.0551056 0.0520498 0.0536407 0.0541874 0.0550139 0.0537018 0.051935 0.0540975 0.0550134 0.0538144 0.0517525 0.0540418 0.0537523 0.0549849 0.0516698 0.0540061 0.0537575 0.0550584 0.0518079 0.0539664 0.0537435 0.0550793 0.0518946 0.0539745 0.0550389 0.0539168 0.05207 0.0539609 0.0538581 0.0550222 0.0520192 0.0538468 0.0551777 0.05219 0.0538754 0.0538842 0.0551424 0.0538798 0.0519315 0.0538938 0.0552094 0.0539528 0.0538776 0.0520591 0.0539464 0.0552078 0.0539503 0.0551846 0.0539577 0.0525033 0.0538916 0.053999 0.0525588 0.0538718 0.0540739 0.0551852 0.0538137 0.0523997 0.0551183 0.0538099 0.0524799 0.0537971 0.0550668 0.0538455 0.0527037 0.054147 0.055089 0.0539024 0.0541534 0.0551489 0.052845 0.0538056 0.0541061 0.0551545 0.0526444 0.0539358 0.0540408 0.0526192 0.0551169 0.0538974 0.0540732 0.0551151 0.0527566 0.0540244 0.0540069 0.0547198 0.0527474 0.054041 0.0546753 0.0540731 0.0522728 0.0546932 0.0540106 0.0541227 0.054754 0.0523207 0.0539741 0.0540801 0.0524941 0.0548077 0.0541056 0.0540267 0.0547748 0.0522704 0.0540698 0.0539626 0.0547311 0.0521764 0.0546254 0.0541458 0.0539195 0.0545521 0.0540338 0.0524319 0.0546258 0.0539823 0.054049 0.0545865 0.0523302 0.0540904 0.0539703 0.0546701 0.0538809 0.0541112 0.0525451 0.0547096 0.0539485 0.0541262 0.054648 0.052558 0.0538581 0.0541865 0.0548526 0.0526758 0.0541997 0.0539237 0.054834 0.054159 0.0526121 0.0537992 0.0548178 0.0542404 0.0547611 0.0537373 0.0524218 0.0542368 0.054902 0.0538618 0.0542975 0.0524623 0.0548813 0.0532895 0.0538227 0.0542667 0.0549353 0.0538072 0.0548712 0.0543132 0.0533307 0.054763 0.0537695 0.0541328 0.05347 0.0547258 0.0542857 0.0537205 0.0547136 0.0542014 0.0534098 0.0548177 0.0536976 0.0542006 0.0531917 0.0547754 0.0542445 0.0545684 0.0533297 0.0542864 0.0544171 0.0544863 0.0544371 0.0532834 0.0543411 0.0543551 0.0545897 0.0534129 0.0543708 0.0545094 0.0543608 0.0542896 0.0535318 0.0545395 0.0543533 0.0543313 0.0543852 0.0536213 0.0544272 0.0544207 0.054259 0.0533723 0.0544659 0.0543694 0.0542818 0.0543355 0.0535012 0.0544372 0.0545146 0.0542909 0.0531016 0.0544332 0.0543733 0.0543124 0.0531768 0.0539159 0.0544583 0.0532259 0.054231 0.0546577 0.0538555 0.0530573 0.0541991 0.054655 0.0539638 0.0545781 0.0531065 0.0542279 0.0546121 0.0539204 0.0533177 0.0541339 0.0540439 0.0534417 0.0547186 0.0542364 0.0533536 0.0539874 0.0541927 0.0546992 0.053228 0.0540335 0.0541499 0.0546415 0.0532347 0.0540919 0.0546553 0.0541118 0.0533343 0.054527 0.0541881 0.0540609 0.0541099 0.0536987 0.0544678 0.0540999 0.054134 0.0545208 0.0541704 0.0545894 0.0542742 0.0541041 0.0541938 0.0545899 0.0538072 0.0540443 0.0542008 0.0545305 0.0535727 0.0540604 0.0539422 0.0549568 0.0536637 0.0540043 0.0540074 0.0549242 0.0537036 0.0540621 0.0549935 0.0542565 0.0537481 0.0549682 0.0540217 0.0541106 0.054889 0.0540807 0.0538309 0.0548366 0.0541373 0.0541438 0.0541594 0.0547786 0.0539262 0.0542119 0.0548478 0.0541408 0.0540601 0.0549277 0.0539556 0.0542713 0.0548862 0.0540883 0.0548694 0.0542133 0.0537791 0.0548286 0.0539719 0.0543429 0.0538663 0.0550049 0.0542808 0.0536089 0.054031 0.0550394 0.0535044 0.0539768 0.0542433 0.0550181 0.0535515 0.0549691 0.0540175 0.0543248 0.0536496 0.0543701 0.0551049 0.0539046 0.0534485 0.0543376 0.0550485 0.0540627 0.0534542 0.054269 0.053989 0.0535511 0.0543942 0.0550609 0.0539651 0.0537141 0.0549238 0.0544131 0.0539411 0.0549134 0.0537378 0.0544424 0.0538654 0.055018 0.0538942 0.0538072 0.0544899 0.0549731 0.0538573 0.0536463 0.0544957 0.0549615 0.0539109 0.0547694 0.053621 0.0545024 0.0547622 0.0537818 0.0544528 0.0529179 0.0547208 0.0537985 0.0529259 0.0548236 0.0545617 0.0530301 0.0537363 0.0547905 0.0543381 0.0547201 0.0528073 0.0540164 0.0544653 0.0546584 0.0530133 0.0540151 0.0543961 0.0546715 0.0529144 0.0539662 0.0543444 0.0545955 0.0531297 0.0538706 0.0544023 0.053141 0.0539125 0.0544022 0.0545412 0.0532304 0.0544657 0.0546854 0.0538524 0.0530184 0.0546116 0.0545182 0.0539112 0.0548563 0.0545703 0.0539629 0.0548176 0.0545783 0.0531241 0.0548696 0.0539039 0.0545931 0.0527462 0.0549133 0.0537958 0.0528866 0.053856 0.0545267 0.0548284 0.053741 0.0528133 0.054748 0.0537986 0.0546518 0.0526666 0.054652 0.0538085 0.0531867 0.054708 0.0527085 0.0537536 0.0531207 0.0529098 0.0547786 0.0537348 0.0532774 0.0547752 0.0537069 0.0530416 0.0532958 0.0547208 0.0530069 0.0531386 0.0536425 0.053219 0.0546615 0.0527836 0.0535876 0.0531893 0.0529006 0.0536742 0.0553056 0.0533399 0.0536479 0.0552982 0.0528965 0.0532848 0.0536336 0.0552872 0.0533463 0.0534415 0.0535667 0.0553212 0.0534412 0.0533932 0.0535812 0.053423 0.0553391 0.0535231 0.0553333 0.053245 0.0538276 0.0534899 0.0552901 0.0533317 0.0537579 0.0534256 0.0552598 0.0533254 0.0537959 0.0535248 0.0552728 0.0535098 0.0537115 0.0535756 0.0553208 0.0536518 0.0532324 0.0553013 0.0535327 0.0536809 0.0531608 0.055275 0.0535979 0.0553022 0.0537278 0.0532985 0.0533996 0.0553461 0.0531647 0.0536206 0.05317 0.0534904 0.0553517 0.0536686 0.0531462 0.0533375 0.0553396 0.0535932 0.0532309 0.0532614 0.0535644 0.0532006 0.0533907 0.0553658 0.0531174 0.0534053 0.0553682 0.0535071 0.053483 0.0530035 0.0553528 0.0535952 0.0553554 0.053526 0.0535468 0.0530959 0.0553267 0.0532867 0.0534634 0.0535343 0.055349 0.0553226 0.0534589 0.0535448 0.0533871 0.0553528 0.0534302 0.0535996 0.0533892 0.0534786 0.0553459 0.0536748 0.0531693 0.0552432 0.0534472 0.0537329 0.0532883 0.0552479 0.0533357 0.0536627 0.0552103 0.053209 0.0538032 0.0532722 0.0552707 0.0515743 0.0537369 0.0552382 0.0533809 0.051807 0.0551803 0.0538118 0.0516986 0.0537783 0.0514988 0.0538778 0.0551479 0.0537976 0.0514831 0.0551753 0.0538908 0.0516888 0.0537829 0.0552041 0.0516146 0.0552124 0.0539713 0.0537225 0.0518438 0.0538851 0.0551654 0.053653 0.0538072 0.0552961 0.0519405 0.053579 0.0552694 0.0539603 0.0520417 0.0553178 0.0535896 0.0536759 0.0517392 0.0537189 0.0553237 0.0536057 0.0518081 0.0537128 0.0552981 0.0537071 0.0552989 0.0518575 0.0537863 0.0536307 0.0552435 0.0513861 0.0537364 0.0513589 0.0535991 0.055206 0.0536863 0.0552384 0.0514535 0.0536337 0.0552684 0.0536199 0.0515569 0.0535351 0.0552541 0.0512668 0.0537591 0.0535014 0.0512501 0.0552226 0.0538685 0.0513618 0.0534874 0.0539478 0.0553676 0.0515843 0.0553718 0.0540207 0.0533767 0.0517243 0.0553663 0.0538231 0.051731 0.0534219 0.0539186 0.0553721 0.0514728 0.0533661 0.055373 0.0539382 0.0516026 0.0535393 0.055367 0.0540003 0.0553671 0.0534075 0.0515271 0.0531768 0.0553598 0.0534764 0.0532545 0.0515803 0.0553484 0.0534138 0.0533457 0.055353 0.0521298 0.053292 0.0533341 0.0553382 0.0533445 0.0532401 0.0519789 0.055343 0.0531727 0.0522014 0.0532853 0.0520815 0.0533154 0.0553695 0.0519221 0.0553706 0.0534278 0.0537109 0.0521039 0.0553717 0.0534177 0.0536638 0.0519693 0.0535143 0.0536365 0.0553738 0.0523133 0.0536015 0.0535672 0.0553757 0.0523138 0.053393 0.0535682 0.055368 0.0535756 0.0523637 0.0535859 0.0553572 0.0534936 0.0521833 0.0553595 0.0536626 0.0536004 0.055344 0.0521534 0.0535174 0.053168 0.0553584 0.0522829 0.053527 0.0532575 0.0518455 0.0553454 0.0534623 0.0533137 0.0518467 0.0534606 0.053235 0.0553354 0.0534019 0.0553288 0.0519558 0.0531761 0.0553033 0.053471 0.0517373 0.0533822 0.0553187 0.0532855 0.0517225 0.055308 0.0533046 0.0533615 0.0518705 0.0552854 0.0533936 0.0533413 0.0552552 0.0521131 0.0534534 0.0533993 0.052252 0.0533544 0.0535286 0.0552243 0.0520239 0.0552829 0.0533771 0.0536105 0.0552819 0.0519189 0.0532742 0.0535555 0.0552339 0.0521487 0.0532593 0.0534591 0.0552327 0.0531877 0.0552592 0.0520137 0.0535787 0.0511213 0.0553288 0.0532899 0.0553109 0.0511899 0.0535002 0.0532422 0.0553037 0.0513269 0.0536788 0.0510184 0.0531841 0.0553261 0.0537571 0.0510625 0.0552887 0.0532523 0.0537851 0.0510875 0.0553097 0.053666 0.0512128 0.053134 0.0552704 0.0537152 0.0531451 0.0513475 0.0552514 0.0538144 0.0530544 0.0514156 0.0552668 0.0538561 0.0532178 0.0514811 0.0552422 0.0540271 0.0511902 0.0531712 0.0539703 0.0514475 0.0551331 0.0531432 0.0513452 0.0530872 0.0539355 0.055093 0.0530578 0.0509126 0.055082 0.0538943 0.0551296 0.0508254 0.0529451 0.0540342 0.0551206 0.0529406 0.0509928 0.053719 0.0550494 0.0530056 0.0507084 0.0536496 0.0550373 0.0508714 0.0537795 0.0549489 0.0528049 0.0509882 0.0536759 0.0549967 0.0507976 0.0528282 0.0538095 0.0550597 0.0511906 0.0550048 0.0527477 0.0537508 0.0549914 0.0513039 0.052944 0.0538584 0.0551603 0.0529495 0.0510857 0.0539756 0.0551542 0.0528496 0.0540244 0.0551053 0.0509415 0.0528337 0.055191 0.0538449 0.0511002 0.052818 0.0551908 0.0511718 0.053888 0.0551525 0.0527237 0.0517028 0.0551305 0.0539266 0.0550519 0.0532075 0.0515615 0.0551058 0.053161 0.0540146 0.0516039 0.0550612 0.0532158 0.0517693 0.0549943 0.0539982 0.0530419 0.0514295 0.0550783 0.0540646 0.0530945 0.0516346 0.0550318 0.0529987 0.0540811 0.0517875 0.0549494 0.0530832 0.0541453 0.0531311 0.0548952 0.0519115 0.0540408 0.0549009 0.0531242 0.0519054 0.0541947 0.0548421 0.0530107 0.0516857 0.0549543 0.0541189 0.0529625 0.0517886 0.0549032 0.0542038 0.0530331 0.0548486 0.0513257 0.0529235 0.0543251 0.0547933 0.0513991 0.0528628 0.0542764 0.0515349 0.0547293 0.0529021 0.0542964 0.0514769 0.0527206 0.0542601 0.0546834 0.0512562 0.0547966 0.0543604 0.05271 0.0514135 0.0548481 0.0541015 0.0527967 0.0512684 0.0547893 0.0542154 0.0528462 0.0515713 0.0541722 0.0547341 0.05289 0.0515435 0.0541153 0.0549908 0.0527976 0.0549479 0.0516948 0.0540788 0.0549006 0.0527198 0.0541579 0.0514411 0.0549781 0.0527622 0.0541908 0.0549401 0.0513997 0.0542435 0.0535467 0.0549099 0.0542872 0.0516249 0.0548389 0.0544106 0.0535862 0.0547715 0.0543457 0.0515127 0.0534813 0.0548812 0.0542765 0.0548197 0.0524918 0.0534811 0.0544083 0.0525656 0.0534134 0.0543454 0.0547589 0.0525297 0.0535195 0.0543977 0.0552025 0.0526565 0.0551665 0.0534623 0.054457 0.0523905 0.0551985 0.0545061 0.0534421 0.0551686 0.0523879 0.05336 0.0545239 0.0551621 0.0524809 0.0533999 0.0544895 0.0550797 0.0526531 0.0533275 0.0544231 0.0551244 0.0527847 0.0544349 0.053383 0.0550328 0.0551295 0.0528555 0.0532878 0.0545851 0.0550897 0.0527524 0.0532928 0.055038 0.0546539 0.0526484 0.0552197 0.0546474 0.0532057 0.0525677 0.0551959 0.0546333 0.0531533 0.0526774 0.0545786 0.0551856 0.0531909 0.0522699 0.0532812 0.0546948 0.0523697 0.055217 0.0532278 0.0544818 0.052381 0.0531533 0.0545433 0.0551792 0.0532071 0.0521009 0.0544747 0.0551592 0.053096 0.0522399 0.0545357 0.0551161 0.0530029 0.0545407 0.0522303 0.0551421 0.0546071 0.052519 0.0550839 0.053073 0.0546612 0.0525706 0.0550572 0.0534326 0.054599 0.0524553 0.055108 0.0533407 0.0523434 0.0550633 0.0533408 0.0547307 0.0524603 0.0550016 0.0532392 0.0547184 0.054941 0.0529734 0.0546574 0.0533446 0.0550218 0.0528713 0.0532408 0.0549759 0.0547237 0.0530099 0.0549587 0.0532407 0.054093 0.0548966 0.0527819 0.053255 0.0541767 0.0527418 0.0541585 0.0531637 0.0528365 0.0540983 0.0531411 0.0542302 0.0531018 0.0543209 0.0530466 0.0530913 0.0542473 0.0548479 0.0531159 0.0543034 0.0531898 0.0547879 0.0543788 0.0529564 0.0549053 0.0542735 0.0548436 0.0531181 0.0529808 0.054435 0.0531357 0.0547884 0.0544215 0.0530604 0.0548427 0.0529756 0.0543554 0.052622 0.0549973 0.0530073 0.0550291 0.0527172 0.0540614 0.0529825 0.0549409 0.0527174 0.0541352 0.0530247 0.0525002 0.0542461 0.0550154 0.0529234 0.0526017 0.0541945 0.0549316 0.0528937 0.0525944 0.0549827 0.0528779 0.0528367 0.0541342 0.0548955 0.0527786 0.0547883 0.0540904 0.0528811 0.054839 0.0541725 0.0530722 0.0529112 0.0548753 0.0542156 0.0526711 0.0548832 0.0543311 0.0527913 0.0530128 0.0548168 0.0543935 0.0527448 0.05298 0.0543017 0.0547833 0.0520535 0.0529083 0.0542908 0.0520582 0.0544063 0.0522163 0.0542831 0.0543625 0.0528903 0.0541862 0.0518958 0.0545139 0.0530478 0.0542391 0.051943 0.0544625 0.0529225 0.0543661 0.0520832 0.054587 0.0529656 0.054286 0.0522441 0.0545744 0.0542385 0.0545004 0.0523253 0.0543255 0.0545522 0.0528661 0.0541786 0.0546153 0.0523604 0.0527939 0.0541287 0.0521039 0.0546467 0.0528252 0.0540662 0.0521888 0.0540219 0.054727 0.0517912 0.0541977 0.0546803 0.0527188 0.0547165 0.0528156 0.0541482 0.0518105 0.051965 0.054096 0.052699 0.0547547 0.0544235 0.0516993 0.0544758 0.0527409 0.0545315 0.0544649 0.051645 0.0545921 0.0543285 0.0543682 0.0517114 0.0525727 0.0544554 0.0544188 0.0518487 0.0545507 0.0526372 0.054485 0.0520378 0.0546936 0.0544275 0.0520769 0.0546447 0.0526183 0.0543655 0.0519763 0.0547563 0.0526527 0.0542774 0.0518495 0.0526882 0.0542346 0.0547712 0.0541833 0.0518142 0.0546823 0.0542917 0.0525872 0.0519438 0.0542259 0.0546174 0.0523302 0.05252 0.0542248 0.0546181 0.0539415 0.0524373 0.0524561 0.0539751 0.052481 0.0540386 0.0547502 0.0538814 0.0523419 0.0543008 0.0525299 0.0540647 0.0522223 0.0543582 0.0529052 0.0539128 0.0544023 0.0523959 0.052809 0.0539675 0.0543481 0.0522867 0.0540088 0.0528517 0.0543836 0.0525103 0.0538304 0.05375 0.0544437 0.0525687 0.0538193 0.052767 0.0544347 0.052576 0.0537111 0.0526862 0.0544978 0.0536862 0.0526146 0.054474 0.0527278 0.0538837 0.0545209 0.0523648 0.0538377 0.0545147 0.0524678 0.0537877 0.0545566 0.052766 0.0524684 0.0537428 0.0545818 0.0527469 0.0521863 0.0541524 0.0546321 0.0526978 0.052171 0.0541045 0.0544774 0.0526426 0.0540484 0.0520533 0.0545171 0.0539531 0.0520215 0.0544894 0.0526292 0.0541428 0.0522637 0.0544997 0.0525289 0.0540455 0.0523299 0.054541 0.0540917 0.052555 0.0523509 0.0545386 0.053891 0.0525527 0.0522268 0.0545952 0.0538095 0.0545891 0.0539767 0.0526373 0.0521161 0.0545861 0.0539467 0.0525838 0.0546586 0.0538203 0.052206 0.0546421 0.0524102 0.0538684 0.0546442 0.0540138 0.0544886 0.0547025 0.0540623 0.0545158 0.0525085 0.0547004 0.0544432 0.0545627 0.0524564 0.0538988 0.0545867 0.0524042 0.0545884 0.0539536 0.0546265 0.0540094 0.0544633 0.0546083 0.0546615 0.0545304 0.0524997 0.0547033 0.054384 0.0542229 0.0524419 0.054724 0.0543756 0.0541151 0.0546605 0.0523534 0.054263 0.0546814 0.0541618 0.054306 0.0546943 0.0542643 0.0544159 0.0547545 0.0540627 0.0542964 0.0548028 0.0523205 0.0540903 0.054345 0.0547729 0.0522619 0.0538266 0.0547016 0.0545957 0.0547194 0.053897 0.0545544 0.0547321 0.0544924 0.0537046 0.0547704 0.0539309 0.0537785 0.0546149 0.0547665 0.0538541 0.0538209 0.0547782 0.0545635 0.0537696 0.0548331 0.0544404 0.0539823 0.0547833 0.0543829 0.0539548 0.0548195 0.0539115 0.0543153 0.0540367 0.0548244 0.0543711 0.0538592 0.0548551 0.053873 0.0544409 0.053918 0.054492 0.0537625 0.0549199 0.0542058 0.0543803 0.054908 0.0543106 0.0541833 0.0548628 0.0540436 0.0537694 0.0545424 0.0541287 0.0546199 0.0538415 0.0541759 0.0545924 0.054218 0.0546209 0.0540847 0.0546614 0.0540088 0.0536536 0.054693 0.0538754 0.0537538 0.0546654 0.0537118 0.0539119 0.0547025 0.0536455 0.0539587 0.0547462 0.0540326 0.0547703 0.0539397 0.0547412 0.0535554 0.0542447 0.054774 0.053683 0.0542028 0.054817 0.0541217 0.0538334 0.0546815 0.0543241 0.0546174 0.0542896 0.0547417 0.0537248 0.0542555 0.0536628 0.0546996 0.0536683 0.0542146 0.0546382 0.053603 0.054176 0.0547821 0.0540109 0.0547618 0.0540947 0.0536123 0.054801 0.0539403 0.0535382 0.0548329 0.0541166 0.0535304 0.054856 0.0534098 0.0540362 0.0548124 0.0534946 0.0539591 0.0548509 0.0535973 0.0548797 0.053526 0.0536366 0.0548146 0.0534952 0.0548668 0.0535132 0.0536467 0.0548216 0.0535503 0.0535177 0.054878 0.0535878 0.0548685 0.0533494 0.05345 0.0549228 0.0533977 0.0549168 0.0532773 0.0534326 0.0534464 0.0533865 0.0549103 0.0533745 0.0549587 0.0533371 0.0549537 0.0532815 0.0533626 0.0549759 0.0536702 0.0532604 0.0549964 0.0536717 0.0533113 0.0549043 0.0537376 0.054968 0.0532808 0.0536048 0.0549312 0.0535947 0.054931 0.053769 0.0532041 0.0549601 0.0537169 0.0549977 0.0534485 0.0536292 0.0533337 0.0550221 0.0534557 0.0550128 0.0535129 0.0550315 0.0534173 0.0533386 0.0535452 0.0532708 0.0550473 0.0535201 0.0533764 0.0534391 0.0532328 0.0551098 0.0531947 0.0531673 0.0550617 0.0530131 0.0547548 0.0532016 0.0530687 0.0547414 0.0532234 0.0532588 0.0547822 0.0531691 0.0531612 0.0548036 0.0530847 0.0531107 0.0529517 0.0548315 0.052917 0.0548078 0.0528448 0.0527886 0.0529954 0.0548566 0.0529361 0.0548601 0.0530898 0.0548331 0.0529958 0.0536178 0.054807 0.0528186 0.0528647 0.054868 0.0548433 0.0533091 0.0548986 0.053556 0.0532419 0.0549046 0.0531726 0.0535578 0.0549367 0.053116 0.0534579 0.0549046 0.0533365 0.0534972 0.0549195 0.0532517 0.0548741 0.0532514 0.0549096 0.0533905 0.0531729 0.0534325 0.0549516 0.0530316 0.0534755 0.0549626 0.0530884 0.0533386 0.054995 0