# vtk DataFile Version 3.0
vtk output
ASCII
DATASET UNSTRUCTURED_GRID
POINTS 44492 float
0.00793871 0 0
0.0210682 0 0
0.0165621 0.0139256 0
0.00959817 0.0136409 0
0.00793871 0 0
0 0 0
0.00793871 0 0
0.00959817 0.0136409 0
0.00649603 0.01579 0
0 0.0163582 0
0 0 0
0.0165621 0.0139256 0
0.0210682 0 0
0.0237786 0 0
0.0299629 0.0137007 0
0.0291605 0.01515 0
0.0202955 0.0170849 0
0.0165621 0.0139256 0
0.0237786 0 0
0.0373929 0 0
0.0381842 0.0107315 0
0.0299629 0.0137007 0
0.0237786 0 0
0.00649603 0.01579 0
0.00959817 0.0136409 0
0.0165621 0.0139256 0
0.0202955 0.0170849 0
0.0193346 0.025919 0
0.0118595 0.027771 0
0.00649603 0.01579 0
0 0.0163582 0
0.00649603 0.01579 0
0.0118595 0.027771 0
0.00873882 0.0316502 0
0 0.0296406 0
0 0.0163582 0
0.00873882 0.0316502 0
0.0118595 0.027771 0
0.0193346 0.025919 0
0.0234662 0.0295969 0
0.0227421 0.035758 0
0.0181369 0.0391597 0
0.0109656 0.0373317 0
0.00873882 0.0316502 0
0.856984 0.405691 0
0.858651 0.40318 0
0.870178 0.4031 0
0.870685 0.413185 0
0.867127 0.416652 0
0.858236 0.41361 0
0.856984 0.405691 0
0.0193346 0.025919 0
0.0202955 0.0170849 0
0.0291605 0.01515 0
0.0330921 0.0251563 0
0.0328307 0.025922 0
0.0234662 0.0295969 0
0.0193346 0.025919 0
0.0381842 0.0107315 0
0.0373929 0 0
0.051452 0 0
0.0514605 0.00554477 0
0.042412 0.0130243 0
0.0381842 0.0107315 0
0.858236 0.41361 0
0.867127 0.416652 0
0.867816 0.424022 0
0.864457 0.428057 0
0.857318 0.42811 0
0.853492 0.418513 0
0.858236 0.41361 0
0.0441769 0.0185381 0
0.042412 0.0130243 0
0.0514605 0.00554477 0
0.0582308 0.0122967 0
0.0568485 0.0183505 0
0.0441769 0.0185381 0
0.844392 0.41836 0
0.844779 0.418049 0
0.853492 0.418513 0
0.857318 0.42811 0
0.853307 0.432303 0
0.846216 0.432246 0
0.844323 0.430629 0
0.844392 0.41836 0
0.051452 0 0
0.066036 0 0
0.0651143 0.00912215 0
0.0582308 0.0122967 0
0.0514605 0.00554477 0
0.051452 0 0
0.0328307 0.025922 0
0.0330921 0.0251563 0
0.043442 0.0202683 0
0.0482793 0.0319983 0
0.0477991 0.0327532 0
0.0380288 0.0353071 0
0.0328307 0.025922 0
0.867816 0.424022 0
0.879477 0.426399 0
0.880888 0.430515 0
0.873193 0.437797 0
0.86815 0.437567 0
0.864457 0.428057 0
0.867816 0.424022 0
0.0299629 0.0137007 0
0.0381842 0.0107315 0
0.042412 0.0130243 0
0.0441769 0.0185381 0
0.043442 0.0202683 0
0.0330921 0.0251563 0
0.0291605 0.01515 0
0.0299629 0.0137007 0
0.043442 0.0202683 0
0.0441769 0.0185381 0
0.0568485 0.0183505 0
0.0577361 0.0200027 0
0.0554403 0.0296077 0
0.0482793 0.0319983 0
0.043442 0.0202683 0
0.760874 0.435888 0
0.767109 0.432379 0
0.773587 0.436467 0
0.773391 0.444477 0
0.768141 0.448245 0
0.760321 0.444583 0
0.760874 0.435888 0
0.0554403 0.0296077 0
0.0577361 0.0200027 0
0.069942 0.02278 0
0.0704728 0.0236876 0
0.0637908 0.0352252 0
0.0633099 0.0353065 0
0.0554403 0.0296077 0
0 0.0296406 0
0.00873882 0.0316502 0
0.0109656 0.0373317 0
0.00443762 0.0469439 0
0 0.0468714 0
0 0.0296406 0
0.74759 0.435791 0
0.752962 0.431957 0
0.760874 0.435888 0
0.760321 0.444583 0
0.755002 0.447553 0
0.747399 0.443672 0
0.74759 0.435791 0
0.0079874 0.0499197 0
0.00443762 0.0469439 0
0.0109656 0.0373317 0
0.0181369 0.0391597 0
0.0189776 0.0489638 0
0.0162251 0.0509528 0
0.0079874 0.0499197 0
0.0328307 0.025922 0
0.0380288 0.0353071 0
0.0373454 0.0369689 0
0.0300247 0.0399337 0
0.0227421 0.035758 0
0.0234662 0.0295969 0
0.0328307 0.025922 0
0.773587 0.436467 0
0.780915 0.432771 0
0.787637 0.439649 0
0.783949 0.44914 0
0.783353 0.449421 0
0.773391 0.444477 0
0.773587 0.436467 0
0.0181369 0.0391597 0
0.0227421 0.035758 0
0.0300247 0.0399337 0
0.0289765 0.0513801 0
0.0189776 0.0489638 0
0.0181369 0.0391597 0
0.754716 0.456249 0
0.755002 0.447553 0
0.760321 0.444583 0
0.768141 0.448245 0
0.768475 0.456296 0
0.763783 0.45957 0
0.754716 0.456249 0
0.00681457 0.0639354 0
0.0079874 0.0499197 0
0.0162251 0.0509528 0
0.0184295 0.0633947 0
0.0166945 0.0648308 0
0.00681457 0.0639354 0
0.768141 0.448245 0
0.773391 0.444477 0
0.783353 0.449421 0
0.779687 0.458259 0
0.776835 0.45959 0
0.768475 0.456296 0
0.768141 0.448245 0
0 0.0468714 0
0.00443762 0.0469439 0
0.0079874 0.0499197 0
0.00681457 0.0639354 0
0 0.0688522 0
0 0.0468714 0
0.0162251 0.0509528 0
0.0189776 0.0489638 0
0.0289765 0.0513801 0
0.0291027 0.0515185 0
0.0258807 0.0636125 0
0.0184295 0.0633947 0
0.0162251 0.0509528 0
0.795162 0.438102 0
0.795795 0.427185 0
0.805085 0.425076 0
0.809118 0.437471 0
0.798084 0.440361 0
0.795162 0.438102 0
0.0377969 0.0639811 0
0.0273176 0.0651192 0
0.0258807 0.0636125 0
0.0291027 0.0515185 0
0.0368491 0.0526313 0
0.0400786 0.0601265 0
0.0377969 0.0639811 0
0.798084 0.440361 0
0.809118 0.437471 0
0.809322 0.437573 0
0.812366 0.448173 0
0.807017 0.452451 0
0.798576 0.449721 0
0.798084 0.440361 0
0.0373454 0.0369689 0
0.0380288 0.0353071 0
0.0477991 0.0327532 0
0.0514011 0.0431723 0
0.0475973 0.0471869 0
0.0416472 0.0471538 0
0.0373454 0.0369689 0
0.787637 0.439649 0
0.795162 0.438102 0
0.798084 0.440361 0
0.798576 0.449721 0
0.79445 0.45303 0
0.783949 0.44914 0
0.787637 0.439649 0
0.0373454 0.0369689 0
0.0416472 0.0471538 0
0.0368491 0.0526313 0
0.0291027 0.0515185 0
0.0289765 0.0513801 0
0.0300247 0.0399337 0
0.0373454 0.0369689 0
0.779687 0.458259 0
0.783353 0.449421 0
0.783949 0.44914 0
0.79445 0.45303 0
0.794541 0.461783 0
0.790173 0.465137 0
0.779687 0.458259 0
0.0477991 0.0327532 0
0.0482793 0.0319983 0
0.0554403 0.0296077 0
0.0633099 0.0353065 0
0.0579317 0.0433949 0
0.0514011 0.0431723 0
0.0477991 0.0327532 0
0.798576 0.449721 0
0.807017 0.452451 0
0.807978 0.460979 0
0.803064 0.4647 0
0.794541 0.461783 0
0.79445 0.45303 0
0.798576 0.449721 0
0.0368491 0.0526313 0
0.0416472 0.0471538 0
0.0475973 0.0471869 0
0.0511264 0.0561987 0
0.0484641 0.0602845 0
0.0400786 0.0601265 0
0.0368491 0.0526313 0
0.754716 0.456249 0
0.763783 0.45957 0
0.763526 0.46865 0
0.758437 0.471452 0
0.751209 0.468928 0
0.750536 0.459267 0
0.754716 0.456249 0
0.0484641 0.0602845 0
0.0511264 0.0561987 0
0.0602229 0.0553502 0
0.063698 0.0621878 0
0.0625176 0.0648878 0
0.0531168 0.0689245 0
0.0523878 0.0687324 0
0.0484641 0.0602845 0
0.0475973 0.0471869 0
0.0514011 0.0431723 0
0.0579317 0.0433949 0
0.062253 0.0503269 0
0.0602229 0.0553502 0
0.0511264 0.0561987 0
0.0475973 0.0471869 0
0.758722 0.481817 0
0.758437 0.471452 0
0.763526 0.46865 0
0.771265 0.472084 0
0.77066 0.481134 0
0.764456 0.48436 0
0.758722 0.481817 0
0.0651143 0.00912215 0
0.066036 0 0
0.0772124 0 0
0.0772364 0.0111722 0
0.0714113 0.0134091 0
0.0651143 0.00912215 0
0.0704728 0.0236876 0
0.069942 0.02278 0
0.0714113 0.0134091 0
0.0772364 0.0111722 0
0.0817656 0.0135355 0
0.0815397 0.0241537 0
0.0767003 0.0260401 0
0.0704728 0.0236876 0
0.763783 0.45957 0
0.768475 0.456296 0
0.776835 0.45959 0
0.775042 0.470069 0
0.771265 0.472084 0
0.763526 0.46865 0
0.763783 0.45957 0
0.0582308 0.0122967 0
0.0651143 0.00912215 0
0.0714113 0.0134091 0
0.069942 0.02278 0
0.0577361 0.0200027 0
0.0568485 0.0183505 0
0.0582308 0.0122967 0
0.0817656 0.0135355 0
0.0879827 0.0113572 0
0.0933967 0.0143542 0
0.0925626 0.0233787 0
0.0859898 0.026048 0
0.0815397 0.0241537 0
0.0817656 0.0135355 0
0.752432 0.484747 0
0.758722 0.481817 0
0.764456 0.48436 0
0.765341 0.49418 0
0.760035 0.49761 0
0.753033 0.494832 0
0.752432 0.484747 0
0.088804 0 0
0.0985244 0 0
0.0992709 0.0120729 0
0.0933967 0.0143542 0
0.0879827 0.0113572 0
0.088804 0 0
0.0772124 0 0
0.088804 0 0
0.0879827 0.0113572 0
0.0817656 0.0135355 0
0.0772364 0.0111722 0
0.0772124 0 0
0.746266 0.472153 0
0.751209 0.468928 0
0.758437 0.471452 0
0.758722 0.481817 0
0.752432 0.484747 0
0.746831 0.482262 0
0.746266 0.472153 0
0.0637908 0.0352252 0
0.0704728 0.0236876 0
0.0767003 0.0260401 0
0.0768191 0.0379322 0
0.0720599 0.0397451 0
0.0637908 0.0352252 0
0.775042 0.470069 0
0.784566 0.473945 0
0.783661 0.482496 0
0.777951 0.485384 0
0.77066 0.481134 0
0.771265 0.472084 0
0.775042 0.470069 0
0.0859898 0.026048 0
0.0925626 0.0233787 0
0.0990357 0.0274356 0
0.0975157 0.0350266 0
0.0892187 0.0385171 0
0.0875986 0.0380257 0
0.0859898 0.026048 0
0.0767003 0.0260401 0
0.0815397 0.0241537 0
0.0859898 0.026048 0
0.0875986 0.0380257 0
0.0824377 0.0399774 0
0.0768191 0.0379322 0
0.0767003 0.0260401 0
0.764456 0.48436 0
0.77066 0.481134 0
0.777951 0.485384 0
0.776975 0.494069 0
0.77315 0.496797 0
0.765341 0.49418 0
0.764456 0.48436 0
0.103841 0.0139139 0
0.109253 0.0120469 0
0.114491 0.0144959 0
0.113479 0.0264212 0
0.110168 0.027629 0
0.103814 0.0254281 0
0.103841 0.0139139 0
0.0992709 0.0120729 0
0.0985244 0 0
0.109885 0 0
0.109253 0.0120469 0
0.103841 0.0139139 0
0.0992709 0.0120729 0
0.776835 0.45959 0
0.779687 0.458259 0
0.790173 0.465137 0
0.789144 0.470922 0
0.784566 0.473945 0
0.775042 0.470069 0
0.776835 0.45959 0
0.0933967 0.0143542 0
0.0992709 0.0120729 0
0.103841 0.0139139 0
0.103814 0.0254281 0
0.0990357 0.0274356 0
0.0925626 0.0233787 0
0.0933967 0.0143542 0
0.816481 0.471781 0
0.810794 0.476213 0
0.803759 0.473735 0
0.803064 0.4647 0
0.807978 0.460979 0
0.815902 0.463472 0
0.816481 0.471781 0
0.11946 0.013015 0
0.12004 0 0
0.129693 0 0
0.129789 0.0124299 0
0.123881 0.0148383 0
0.11946 0.013015 0
0.790173 0.465137 0
0.794541 0.461783 0
0.803064 0.4647 0
0.803759 0.473735 0
0.798393 0.477217 0
0.789144 0.470922 0
0.790173 0.465137 0
0.109253 0.0120469 0
0.109885 0 0
0.12004 0 0
0.11946 0.013015 0
0.114491 0.0144959 0
0.109253 0.0120469 0
0.10497 0.0408674 0
0.0975157 0.0350266 0
0.0990357 0.0274356 0
0.103814 0.0254281 0
0.110168 0.027629 0
0.108338 0.0401798 0
0.10497 0.0408674 0
0.783661 0.482496 0
0.791139 0.486976 0
0.791243 0.49383 0
0.787134 0.497609 0
0.776975 0.494069 0
0.777951 0.485384 0
0.783661 0.482496 0
0.108338 0.0401798 0
0.110168 0.027629 0
0.113479 0.0264212 0
0.118708 0.0282668 0
0.120108 0.0387959 0
0.11261 0.0423372 0
0.108338 0.0401798 0
0.783661 0.482496 0
0.784566 0.473945 0
0.789144 0.470922 0
0.798393 0.477217 0
0.797638 0.482339 0
0.791139 0.486976 0
0.783661 0.482496 0
0.114491 0.0144959 0
0.11946 0.013015 0
0.123881 0.0148383 0
0.124923 0.0254925 0
0.118708 0.0282668 0
0.113479 0.0264212 0
0.114491 0.0144959 0
[...]
CELL_DATA 6400
FIELD FieldData 3
weight 1 6400 float
 0.0502142 0.0501615 0.0502671 0.0503118 0.0502534 0.0502219 0.0502916 0.052945 0.0503089 0.0503786 0.0530195 0.0504393 0.0530966 0.0504679 0.0504184 0.0529913 0.0503576 0.0504699 0.0536464 0.0505459 0.0502511 0.0537105 0.0503164 0.0503709 0.0535728 0.0503789 0.0537383 0.0503691 0.0536544 0.050327 0.0503992 0.0534089 0.0504501 0.0534496 0.0504691 0.0535243 0.050428 0.053607 0.050522 0.0535271 0.0505001 0.0538264 0.0505796 0.0505516 0.0538568 0.0505442 0.0505978 0.0537518 0.0505289 0.0506679 0.0539671 0.0506806 0.0506126 0.0539299 0.0506048 0.0537811 0.0507247 0.0506611 0.0538827 0.0508045 0.0507446 0.0536919 0.0507423 0.0535238 0.0508742 0.0536046 0.0508127 0.0508057 0.0538024 0.0508695 0.0536987 0.0508687 0.0536106 0.0509299 0.0505955 0.0537019 0.0506655 0.0533616 0.0507284 0.0532966 0.0506341 0.0532183 0.0507852 0.0533665 0.050711 0.0534445 0.0508517 0.0532753 0.0507847 0.0530763 0.050927 0.0531626 0.0508955 0.0530573 0.0532042 0.0508165 0.0531287 0.0509428 0.0503701 0.0531206 0.0541429 0.0503601 0.0534397 0.0534455 0.0504217 0.0533537 0.0504164 0.0534052 0.0542285 0.050424 0.0542669 0.0535935 0.0505495 0.0535892 0.054298 0.0504769 0.0534475 0.0542181 0.0535152 0.0505304 0.0536137 0.0504915 0.0534109 0.0538281 0.0541777 0.0506029 0.0537111 0.0534915 0.0542102 0.0506501 0.0542399 0.0532784 0.0505424 0.0534889 0.050606 0.0542533 0.0532352 0.053639 0.0506531 0.0543327 0.0532003 0.0535469 0.0506819 0.0533283 0.0504536 0.0542848 0.0533211 0.0505315 0.0543059 0.0504966 0.0540869 0.0531582 0.0541672 0.0504911 0.0540913 0.0541676 0.0532377 0.0505704 0.0505337 0.0542924 0.0541427 0.050596 0.0526254 0.0540338 0.0506483 0.0540069 0.0540886 0.0527128 0.0541423 0.0507178 0.0525273 0.0542787 0.0507342 0.0526215 0.0541982 0.0543205 0.050694 0.0527997 0.0541987 0.0506233 0.053989 0.0526502 0.054141 0.0541426 0.0527163 0.0507718 0.0541321 0.0524194 0.0541364 0.0506798 0.0523591 0.050825 0.0541875 0.0540465 0.0524525 0.0507562 0.0541968 0.0538357 0.0525509 0.0507351 0.0539218 0.0525547 0.0507287 0.0538205 0.0524211 0.0541754 0.0508718 0.0537252 0.0528744 0.0542582 0.0507971 0.053603 0.052742 0.054254 0.0509376 0.0528103 0.0536585 0.0543144 0.0508627 0.0538034 0.0529321 0.0509702 0.0537699 0.0527989 0.0543336 0.0509065 0.0543231 0.0539306 0.052868 0.054249 0.0526561 0.0536517 0.051058 0.052558 0.0526088 0.0536099 0.0510113 0.0542374 0.0524904 0.0508028 0.0543047 0.0536004 0.0527177 0.0508265 0.0543151 0.0526758 0.0532992 0.0508883 0.0543845 0.0525566 0.0533716 0.0507986 0.0522304 0.0532404 0.0508675 0.0543761 0.052248 0.0531833 0.0521491 0.0509522 0.0530502 0.0509353 0.05436 0.0521004 0.0532288 0.0509937 0.0523759 0.0533065 0.0543156 0.0523264 0.0510876 0.0543499 0.0510975 0.0532766 0.0522778 0.0543986 0.0510288 0.0531268 0.052159 0.0544363 0.0531132 0.0543791 0.0519741 0.0510766 0.051742 0.0529614 0.0509812 0.0518621 0.0528429 0.0543655 0.0518208 0.0511326 0.0529018 0.0544115 0.0520339 0.0509355 0.052732 0.0544594 0.0527471 0.0521175 0.0510592 0.0544892 0.0509941 0.0530328 0.054456 0.0509956 0.0544885 0.0529695 0.0509308 0.0527735 0.0545378 0.0510605 0.0528857 0.0509986 0.0545202 0.052822 0.0511253 0.0510562 0.0534457 0.0545695 0.0511813 0.0534536 0.0511907 0.0546225 0.0511308 0.0534363 0.0511246 0.0531744 0.0546587 0.0511868 0.053299 0.0546063 0.0512427 0.0545362 0.0532675 0.050999 0.0545733 0.0534329 0.0510643 0.0546793 0.0534193 0.0511427 0.054611 0.0532546 0.0509999 0.0547241 0.0511533 0.053251 0.0546485 0.0510711 0.0532245 0.0544445 0.0512139 0.0530016 0.0511524 0.0543924 0.0530314 0.051269 0.0544004 0.0530691 0.0544603 0.0528711 0.0513026 0.0528398 0.0545218 0.0512128 0.0545267 0.0528852 0.0512519 0.0545433 0.0530633 0.051344 0.0544582 0.0530893 0.0512578 0.0544464 0.0512731 0.0530491 0.0513268 0.0544326 0.052895 0.0513799 0.0528905 0.0545239 0.0513451 0.0529071 0.0513677 0.0545844 0.0513086 0.0545056 0.0548353 0.0514163 0.0546043 0.0514475 0.0546169 0.0514395 0.0546839 0.0547852 0.0515115 0.0546889 0.0514967 0.054786 0.0547556 0.0515106 0.0548906 0.054746 0.0514527 0.054603 0.0548522 0.0515768 0.0549065 0.0546777 0.0515763 0.0548066 0.0546053 0.0513461 0.0513896 0.0547675 0.0548266 0.0546633 0.0514666 0.0548572 0.0548727 0.0513836 0.0547469 0.0548852 0.051426 0.0546817 0.0549466 0.0515072 0.0549786 0.0547308 0.0514621 0.0549329 0.0549588 0.0515359 0.0521968 0.0549892 0.0516737 0.0522276 0.0550151 0.0516196 0.0550012 0.0522225 0.054964 0.0515771 0.0521792 0.0549163 0.0549282 0.0522059 0.0516369 0.0550087 0.0522893 0.0515631 0.0550089 0.0522475 0.0516422 0.0549668 0.0522702 0.0547703 0.0515957 0.052167 0.0547189 0.0517023 0.0522047 0.054762 0.0548318 0.0521971 0.0510946 0.0548375 0.0521536 0.0547932 0.0511182 0.0522337 0.0510323 0.0546708 0.0522552 0.051178 0.0547436 0.0522288 0.054697 0.0511576 0.0523743 0.0548092 0.0512014 0.054763 0.0512339 0.0523284 0.0548848 0.054927 0.051381 0.0523224 0.0548569 0.0513198 0.054908 0.0524502 0.0512986 0.0549302 0.0523909 0.0513447 0.0549728 0.0512536 0.0523233 0.0549476 0.0514044 0.052307 0.05497 0.0548634 0.0522731 0.0511673 0.0548206 0.0522721 0.0512383 0.0549114 0.051949 0.0512139 0.0523652 0.0519025 0.0512603 0.0548796 0.0524335 0.0512853 0.0524428 0.0548691 0.0523397 0.0514412 0.0522265 0.0550463 0.0523798 0.0513759 0.0523416 0.0550363 0.0521771 0.0513589 0.0521343 0.0550231 0.0525077 0.0521491 0.0513241 0.0550832 0.0524052 0.0520974 0.0550579 0.0514153 0.0522946 0.0521881 0.0550741 0.0515084 0.0521647 0.0522274 0.0550663 0.0519733 0.0550444 0.05148 0.0521975 0.0520254 0.0521503 0.0550328 0.0515074 0.0522158 0.0550673 0.0520976 0.0521009 0.0514232 0.0550511 0.0520582 0.0520417 0.0515965 0.0550513 0.0520729 0.05298 0.0550924 0.0515467 0.0520259 0.0528985 0.0514689 0.0550898 0.0528633 0.0521107 0.0550824 0.0515017 0.0529553 0.0521561 0.0550918 0.0515548 0.0521577 0.0530435 0.0516428 0.0521003 0.0551027 0.0528908 0.0522678 0.0516435 0.0551033 0.0529791 0.0522645 0.0551072 0.0517144 0.0527784 0.0550831 0.0523296 0.0517422 0.0550683 0.0527171 0.0524037 0.0516813 0.0550659 0.0526144 0.0523283 0.0550955 0.0517861 0.0528091 0.0522087 0.0550747 0.0522185 0.0527527 0.0518382 0.0550801 0.0526599 0.0521444 0.0515398 0.055006 0.0522037 0.0550072 0.0530636 0.0516878 0.052275 0.0549794 0.0515946 0.0531046 0.0522747 0.0550309 0.0550299 0.0516262 0.0530006 0.0523313 0.0550055 0.0549526 0.0515686 0.0522614 0.0530888 0.0549479 0.0549179 0.0517154 0.0525333 0.0531683 0.0517407 0.0549123 0.0525241 0.0549995 0.0529932 0.0549802 0.0518402 0.0524694 0.0549711 0.0530413 0.0518179 0.0549392 0.052841 0.0526738 0.0550492 0.0517877 0.0529225 0.0550235 0.0525917 0.0527684 0.0550594 0.0519388 0.0526076 0.0550386 0.0529263 0.0526298 0.0550239 0.0518811 0.0528341 0.0550139 0.0525311 0.0505223 0.0549853 0.0527936 0.0524749 0.0505805 0.0549542 0.0528791 0.0505961 0.0524289 0.0549955 0.0524636 0.0506276 0.0524942 0.0549636 0.0525707 0.0506732 0.0526375 0.0506211 0.0549708 0.0524115 0.0525754 0.0505796 0.0523471 0.0525702 0.0506663 0.0546419 0.052599 0.0507511 0.052779 0.0524471 0.0507395 0.054582 0.0526965 0.0525031 0.0507129 0.0546525 0.0522895 0.0547232 0.0528787 0.0507429 0.0521609 0.054707 0.0528776 0.0521118 0.0508548 0.0546721 0.0523442 0.0527903 0.0508145 0.0546029 0.0521684 0.0527125 0.0508065 0.054533 0.0522258 0.0527403 0.0509037 0.052617 0.0544724 0.0526561 0.0508762 0.0546102 0.0506919 0.0526775 0.0528102 0.0506721 0.0545576 0.0525514 0.0508295 0.0529101 0.0547762 0.0507581 0.0526745 0.0528435 0.0547852 0.0507683 0.0547329 0.0527051 0.0527667 0.0507406 0.052502 0.054833 0.0508715 0.0528638 0.0525694 0.0548386 0.0508187 0.054787 0.0524045 0.0523947 0.0546785 0.052213 0.0509486 0.0524829 0.0546765 0.0522942 0.0509077 0.0546207 0.0523869 0.0523499 0.0509539 0.0547745 0.0524707 0.0524543 0.0547349 0.0525655 0.0510283 0.0522365 0.054725 0.0525975 0.050922 0.0524909 0.0544152 0.0523495 0.0523286 0.050855 0.0544251 0.0522651 0.052413 0.0510115 0.0542899 0.0523185 0.0523116 0.0509288 0.0524916 0.0543497 0.0524907 0.0509984 0.0545658 0.0524356 0.0523919 0.0510762 0.0544941 0.0523866 0.052456 0.0510314 0.0545001 0.0522825 0.0526628 0.0543801 0.0511254 0.0523788 0.0526993 0.0524912 0.0525889 0.0542071 0.0511671 0.0526412 0.0542977 0.0511729 0.0527923 0.0525862 0.0541499 0.0526854 0.0510961 0.0526867 0.0543935 0.052773 0.0512121 0.0527794 0.0542577 0.0527645 0.0509785 0.0543248 0.0527191 0.0525957 0.0511257 0.0542387 0.0526213 0.0510483 0.0525552 0.0546242 0.0528008 0.0510444 0.0544702 0.0527276 0.0526996 0.0545572 0.0511176 0.0523872 0.0526671 0.0546733 0.0522942 0.0511717 0.0546111 0.0526181 0.0524931 0.0511573 0.0545282 0.0520427 0.0525672 0.0512514 0.0545897 0.0519889 0.0524021 0.051997 0.0544373 0.0523037 0.0512686 0.0519514 0.0543675 0.052509 0.0512619 0.0520662 0.0545135 0.0524713 0.0512177 0.052047 0.0526753 0.0520092 0.051406 0.0543725 0.0525979 0.0519166 0.0544401 0.0513229 0.0519548 0.0527736 0.0518836 0.0513242 0.0548698 0.0518766 0.0526283 0.0507716 0.0518512 0.0548223 0.0528157 0.0519237 0.050867 0.0549004 0.05273 0.0519813 0.0508309 0.054857 0.0548848 0.0519058 0.0528527 0.0509052 0.0548156 0.0519666 0.0508439 0.053017 0.0521149 0.0547192 0.0508732 0.0547693 0.0529328 0.0521692 0.0509513 0.0548432 0.0528894 0.0547979 0.0520453 0.0509643 0.0547542 0.0529707 0.0521019 0.0509778 0.054922 0.0510806 0.0522318 0.0530713 0.0548986 0.054863 0.051032 0.0521573 0.05317 0.0510189 0.0549339 0.0520094 0.0530569 0.051039 0.052093 0.0549068 0.0511045 0.0531011 0.051946 0.0549414 0.0519984 0.0532524 0.0548661 0.0520796 0.0531726 0.0548221 0.0521526 0.0547838 0.0528891 0.0520558 0.0517641 0.0547733 0.0530633 0.0518079 0.0548315 0.0517101 0.0529733 0.051773 0.054828 0.0529248 0.0518176 0.0547833 0.0528531 0.0518768 0.0546994 0.0529613 0.0518149 0.0546642 0.0530402 0.0517616 0.0546337 0.0531127 0.0516629 0.0547217 0.0531528 0.054663 0.0516187 0.0545666 0.0532196 0.0544345 0.053102 0.0516224 0.0544894 0.0532693 0.0517273 0.0545536 0.0532064 0.0545945 0.051678 0.052315 0.054473 0.0516746 0.0525049 0.0545199 0.0524108 0.0518701 0.0547362 0.052322 0.0546814 0.051934 0.0524221 0.0546416 0.0525108 0.0518085 0.0547022 0.0526745 0.0518999 0.0547501 0.052581 0.0546549 0.052769 0.0546214 0.0519572 0.0545704 0.0526112 0.0528046 0.0545062 0.0518543 0.0527053 0.0545865 0.0519213 0.0524126 0.0545398 0.0523236 0.0517315 0.0545207 0.052498 0.0523356 0.0517851 0.05242 0.0551122 0.0516848 0.0525162 0.0551166 0.0517538 0.0525972 0.0551155 0.0526885 0.0518265 0.0551174 0.0527928 0.055116 0.0517903 0.0526065 0.0551114 0.0527395 0.055104 0.0517039 0.0550793 0.0522842 0.0550907 0.0550911 0.0528311 0.0522116 0.0551016 0.0527177 0.0550757 0.0523636 0.0528756 0.0551183 0.0523459 0.0530609 0.0551052 0.0529872 0.0522647 0.0551203 0.0529317 0.0551084 0.0521506 0.052893 0.0551025 0.0522013 0.0530211 0.0550708 0.0521257 0.0550868 0.0531977 0.0520431 0.0550775 0.0550991 0.0533316 0.0522707 0.0533089 0.0522159 0.0550631 0.0511657 0.0550831 0.0510109 0.0531397 0.0550615 0.0509382 0.0521116 0.0532529 0.0550454 0.050907 0.0521689 0.0531594 0.0550234 0.051047 0.0550401 0.0524277 0.0533806 0.050963 0.0550646 0.0525215 0.0550441 0.0529404 0.0511926 0.0550151 0.0524592 0.0530761 0.051116 0.0549993 0.0523564 0.0529824 0.0510863 0.0549673 0.0525624 0.0511863 0.0549898 0.0528944 0.0524303 0.0511132 0.0549586 0.0531044 0.0525312 0.055058 0.0512621 0.0523249 0.0532128 0.0550086 0.0550307 0.0511942 0.0522726 0.0533028 0.055048 0.0523779 0.0513533 0.0533516 0.0550166 0.0524149 0.0549951 0.0512739 0.0534312 0.054945 0.0524836 0.0511113 0.0532505 0.0549824 0.0511625 0.0523399 0.0549196 0.0534327 0.0512622 0.0523167 0.0549535 0.0549717 0.0511942 0.0532602 0.0519992 0.0512393 0.0549194 0.0519852 0.0533095 0.0512453 0.0519584 0.0534035 0.0521235 0.0551099 0.0513274 0.0551033 0.0520658 0.0533306 0.0551096 0.0514064 0.05204 0.0533566 0.0551143 0.0513417 0.0518728 0.0534767 0.0551192 0.0519031 0.0550976 0.0514854 0.0535243 0.0550881 0.0518339 0.0514153 0.0535686 0.0550956 0.0515453 0.0517393 0.0550572 0.0536574 0.0520151 0.0514985 0.0550869 0.0536376 0.0550725 0.0519177 0.0513463 0.0535836 0.0550443 0.0518484 0.0513429 0.0537345 0.0522201 0.0534461 0.0550901 0.051437 0.0522028 0.0551076 0.0533336 0.0514481 0.0521069 0.0550838 0.0534266 0.0514317 0.0550987 0.0522551 0.053536 0.0521569 0.0533822 0.0515391 0.0550782 0.0534969 0.0515132 0.0521817 0.0536331 0.0550955 0.0536039 0.0520582 0.0550727 0.0515157 0.0550686 0.0536674 0.051959 0.0515993 0.0550424 0.0537182 0.0519895 0.0550526 0.0515844 0.0537238 0.055063 0.0518858 0.0537887 0.0517287 0.0550316 0.0520779 0.0538549 0.055041 0.0516702 0.0520289 0.0537745 0.0550089 0.0512514 0.054978 0.0519252 0.0538127 0.0513459 0.0550004 0.055033 0.0538595 0.0513961 0.0529655 0.0549752 0.0538852 0.0549408 0.0513031 0.0539731 0.053037 0.0549097 0.0513045 0.0529796 0.0548548 0.0539031 0.0514028 0.0549383 0.0531233 0.0514477 0.0548323 0.0531358 0.0540159 0.0514457 0.0548947 0.0530594 0.0550133 0.0539763 0.0515372 0.0529958 0.0549724 0.0516048 0.054966 0.0529418 0.0540765 0.0514951 0.0530134 0.055002 0.0541105 0.0515991 0.0531432 0.0538984 0.054964 0.0538231 0.0516412 0.0530633 0.0539582 0.0549279 0.053075 0.0513587 0.0539818 0.0549191 0.0530966 0.0515165 0.0541154 0.0548825 0.0514695 0.0540329 0.0531962 0.0548708 0.0514258 0.0541361 0.0532821 0.0548289 0.0515093 0.0540779 0.0532232 0.0515761 0.0549369 0.0532088 0.054265 0.0515554 0.0548727 0.0533661 0.0541705 0.0516567 0.0533009 0.0549025 0.0516866 0.0542236 0.054898 0.0533806 0.0516219 0.0532398 0.054228 0.0549334 0.0517227 0.0532453 0.0548486 0.0543304 0.0531677 0.0548594 0.0517692 0.0534462 0.0533134 0.0548389 0.0518329 0.0534566 0.0533139 0.0547814 0.0535903 0.0516571 0.0533302 0.0548098 0.0535167 0.0517762 0.0547599 0.0529216 0.053569 0.0548596 0.0517406 0.052904 0.053639 0.0548989 0.0517094 0.0536904 0.0528771 0.0548181 0.0518215 0.0537153 0.0530859 0.0548952 0.0517487 0.0529977 0.053811 0.0548506 0.05301 0.0518879 0.0539156 0.0548105 0.0528796 0.0538234 0.0518433 0.0548098 0.0537569 0.0547044 0.0528359 0.0519845 0.0538445 0.0547523 0.0528359 0.0539521 0.0547657 0.0519174 0.0527713 0.0547331 0.0535562 0.0529981 0.0520237 0.0547718 0.0529451 0.0536979 0.0519553 0.0546983 0.0529437 0.0536444 0.0520555 0.0531741 0.054728 0.0534978 0.0517994 0.0531698 0.0546745 0.0518764 0.0530689 0.0535875 0.0546234 0.0519361 0.0532559 0.0538416 0.0546871 0.0519882 0.0532503 0.0539518 0.0546985 0.0531622 0.053907 0.0518743 0.054741 0.0530856 0.0519581 0.0546198 0.0537811 0.0546416 0.053068 0.0520748 0.0540226 0.054557 0.0530119 0.0519987 0.0540585 0.0531277 0.0520405 0.0540272 0.0544869 0.0532011 0.0539449 0.0545672 0.0531835 0.0521795 0.0541801 0.0544981 0.0521197 0.0531214 0.0540652 0.0546508 0.0542396 0.0545946 0.0521522 0.0534947 0.054133 0.0546439 0.0541801 0.0522806 0.0534394 0.054582 0.0542706 0.0534536 0.0522274 0.0545041 0.0543372 0.0535595 0.0515829 0.0544807 0.0543254 0.0535085 0.0545537 0.0516986 0.0544977 0.0535675 0.0544041 0.0516251 0.054418 0.0535151 0.0540422 0.0516449 0.053459 0.0544321 0.0541391 0.0533887 0.0516596 0.0545316 0.0542288 0.0533922 0.0517597 0.0544517 0.0541098 0.053521 0.0517009 0.0544024 0.0534616 0.054192 0.0519275 0.0548703 0.0535084 0.0542752 0.0518147 0.0543378 0.0548043 0.0536206 0.0518688 0.0547639 0.0544195 0.0517985 0.0547985 0.0543817 0.0519061 0.0536266 0.0547459 0.0547031 0.0520123 0.0536229 0.054457 0.0546548 0.0542988 0.0517498 0.0536731 0.0546437 0.0543766 0.0519598 0.0546946 0.0536739 0.0546234 0.0518518 0.0544469 0.0535698 0.0545756 0.0524371 0.0536163 0.0518288 0.0547845 0.052349 0.0535706 0.0546867 0.052532 0.0536647 0.0518381 0.0547485 0.0523857 0.0536579 0.0519292 0.0523652 0.0546852 0.0524654 0.0519817 0.0536448 0.0525571 0.0547776 0.0520867 0.0536089 0.0526174 0.0533301 0.0521152 0.0547387 0.0534034 0.0527673 0.0521696 0.0546779 0.0533042 0.0526551 0.0520691 0.0546173 0.0533863 0.0526861 0.0521982 0.0545607 0.0534608 0.0527857 0.0520494 0.0533527 0.0545535 0.052876 0.0519403 0.0534295 0.0546196 0.0524001 0.0532613 0.0521151 0.0524748 0.0544917 0.0532307 0.0521674 0.0525616 0.0546098 0.0533103 0.0526104 0.0520412 0.0533968 0.0545499 0.0524242 0.0521479 0.0544651 0.0524818 0.0532664 0.0526032 0.0545316 0.0522538 0.0533547 0.0526885 0.0545865 0.0522021 0.0535455 0.0527532 0.0545184 0.0535046 0.0544551 0.0523204 0.0528497 0.0534694 0.0544173 0.0527158 0.0524009 0.0535893 0.0527987 0.0543479 0.0522527 0.0535782 0.0543856 0.0529939 0.0535415 0.052355 0.0543406 0.0531534 0.0534328 0.0524357 0.0542667 0.0530401 0.0535046 0.0525036 0.054504 0.0533898 0.0530401 0.0544445 0.0522229 0.0535437 0.0529096 0.0544311 0.0534729 0.0531808 0.0523314 0.0543686 0.053132 0.0543751 0.0534947 0.0524336 0.0543109 0.0533735 0.0527417 0.0542334 0.0523064 0.0532975 0.0526702 0.0542468 0.052441 0.0535079 0.0542931 0.0526366 0.0532687 0.0524994 0.054283 0.0525906 0.05334 0.0524505 0.0542088 0.0527956 0.0534682 0.0527465 0.0523682 0.0529746 0.0526965 0.0541465 0.0530958 0.0525755 0.0526307 0.0531167 0.0540694 0.0525201 0.0530703 0.0525615 0.052443 0.0541561 0.0529439 0.0526179 0.0525495 0.0532007 0.0539775 0.0526711 0.0532563 0.05399 0.0527328 0.0534943 0.0524826 0.0540726 0.051635 0.0535042 0.0526055 0.0541747 0.0516333 0.0534085 0.0528941 0.0540946 0.0515693 0.053359 0.0529522 0.0516868 0.0538867 0.0534563 0.0527974 0.0525434 0.0538893 0.0516385 0.0528617 0.0525164 0.0517136 0.0536927 0.0530134 0.0524552 0.0517702 0.0529855 0.052633 0.0537737 0.0517109 0.052483 0.0529282 0.0517477 0.0537896 0.0525822 0.0517641 0.0527892 0.0539924 0.0526595 0.0517924 0.0527186 0.0538871 0.0528161 0.0518135 0.0528589 0.053803 0.0529175 0.0518112 0.05267 0.0542199 0.0518629 0.0527394 0.0529165 0.0518711 0.0526913 0.0528533 0.0542963 0.0517125 0.0541455 0.0527335 0.0529626 0.051732 0.0523995 0.0528913 0.0542755 0.0517935 0.0528354 0.0523671 0.0541999 0.0517875 0.0525026 0.0540366 0.0522701 0.0539275 0.0517714 0.0525545 0.0539823 0.0524662 0.0518434 0.0525924 0.0524143 0.0538579 0.0518482 0.052676 0.0523477 0.0540886 0.051893 0.0525234 0.0522462 0.054063 0.0519215 0.0525244 0.0521896 0.0539451 0.0518617 0.052675 0.052134 0.0519324 0.0526013 0.0535317 0.0519845 0.0527762 0.0520727 0.053623 0.0518778 0.052949 0.0523024 0.0534796 0.05184 0.0528785 0.0519041 0.0522399 0.0536989 0.0519314 0.0527431 0.0535138 0.0521835 0.0519029 0.0535806 0.051985 0.0529328 0.0521209 0.0519543 0.0525216 0.0528382 0.053377 0.0519711 0.0526174 0.0530161 0.0519901 0.053424 0.0531698 0.052467 0.0519544 0.0532237 0.0526932 0.0520155 0.053291 0.0530934 0.0520217 0.0526243 0.0533538 0.0532372 0.0520201 0.0525867 0.0534426 0.0532764 0.0520604 0.0523568 0.0532609 0.0521029 0.0533595 0.0522979 0.0537155 0.0519269 0.0525138 0.0534988 0.0536099 0.051957 0.0524054 0.0533296 0.0536366 0.0520266 0.0523575 0.0535017 0.0519907 0.0538463 0.0530617 0.0520258 0.0534277 0.0537656 0.0531694 0.0521161 0.0529965 0.0537146 0.0520612 0.0530392 0.0531078 0.0535252 0.0520821 0.0532107 0.0532163 0.0521225 0.0533695 0.0531537 0.0531224 0.0520463 0.0535722 0.0531238 0.0530559 0.0521442 0.0533651 0.0529674 0.0531674 0.0521787 0.0528951 0.0534384 0.0531629 0.052164 0.053481 0.0527969 0.0533129 0.0543819 0.0520905 0.0530063 0.0533921 0.0543492 0.0531079 0.0532698 0.052205 0.0530769 0.0542679 0.0532817 0.0529374 0.0517743 0.0544225 0.0543277 0.053364 0.0518665 0.0533058 0.0541293 0.0519302 0.0536548 0.0533343 0.0541692 0.0518472 0.0537204 0.0532499 0.0540134 0.0531972 0.0518005 0.0535812 0.0542335 0.0537828 0.0542647 0.0518971 0.0533772 0.0536992 0.0540606 0.054168 0.0539057 0.0534194 0.0544418 0.0538563 0.0533273 0.0543633 0.0539565 0.0532871 0.0540239 0.054468 0.053148 0.0538873 0.054402 0.0538134 0.0530904 0.0539748 0.0530417 0.0543145 0.0532357 0.0535986 0.0543816 0.0537096 0.0542008 0.0532763 0.0542944 0.0535529 0.0531823 0.0540967 0.0536284 0.0527272 0.0542201 0.0537095 0.0528301 0.0538064 0.0541254 0.0526769 0.0538938 0.0538941 0.052887 0.053975 0.052779 0.0537044 0.0538012 0.0525667 0.0538164 0.05386