# vtk DataFile Version 3.0
vtk output
ASCII
DATASET UNSTRUCTURED_GRID
POINTS 23355 float
0 0 0
1 0 0
1 1 0
0 1 0
0 0 0
0 0 0
1 0 0
1 1 0
0 1 0
0 0 0
0 0 0
1 0 0
1 1 0
0 1 0
0 0 0
0 0 0
1 0 0
1 1 0
0 1 0
0 0 0
0 0 0
1 0 0
1 1 0
0 1 0
0 0 0
0 0 0
1 0 0
1 1 0
0 1 0
0 0 0
0 0 0
1 0 0
1 1 0
0 1 0
0 0 0
0.209162 0.184979 0
0.084527 0 0
1 0 0
1 1 0
0.767562 1 0
0.209162 0.184979 0
0 0 0
1 0 0
1 1 0
0 1 0
0 0 0
0 0 0
1 0 0
1 1 0
0 1 0
0 0 0
0 0 0
1 0 0
1 1 0
0 1 0
0 0 0
0 0 0
1 0 0
1 1 0
0 1 0
0 0 0
0 0 0
1 0 0
1 1 0
0 1 0
0 0 0
0 0 0
1 0 0
1 1 0
0 1 0
0 0 0
0 0 0
1 0 0
1 1 0
0 1 0
0 0 0
0 0 0
1 0 0
1 1 0
0 1 0
0 0 0
0 0 0
1 0 0
1 1 0
0 1 0
0 0 0
0.101008 0 0
1 0 0
1 1 0
0.718392 1 0
0.101008 0 0
0 0 0
1 0 0
1 1 0
0 1 0
0 0 0
0 0 0
1 0 0
1 1 0
0 1 0
0 0 0
0 0 0
1 0 0
1 1 0
0 1 0
0 0 0
0 0 0
1 0 0
1 1 0
0 1 0
0 0 0
0 0 0
1 0 0
1 1 0
0 1 0
0 0 0
0 0 0
1 0 0
1 1 0
0 1 0
0 0 0
0.578182 0.450755 0
0.303944 0 0
1 0 0
1 1 0
0.927337 1 0
0.578182 0.450755 0
0 0 0
1 0 0
1 1 0
0 1 0
0 0 0
0 0 0
1 0 0
1 1 0
0 1 0
0 0 0
0 0 0
1 0 0
1 1 0
0 1 0
0 0 0
0 0 0
1 0 0
1 1 0
0 1 0
0 0 0
0 0 0
1 0 0
1 1 0
0 1 0
0 0 0
0.447004 0 0
1 0 0
1 1 0
0.964812 1 0
0.447004 0 0
0 0 0
1 0 0
1 1 0
0 1 0
0 0 0
0 0 0
1 0 0
1 1 0
0 1 0
0 0 0
0.298743 0 0
1 0 0
1 1 0
0.870477 1 0
0.298743 0 0
0 0 0
1 0 0
1 1 0
0 1 0
0 0 0
0 0 0
1 0 0
1 1 0
0 1 0
0 0 0
0 0 0
1 0 0
1 1 0
0 1 0
0 0 0
0 0 0
1 0 0
1 1 0
0 1 0
0 0 0
0 0 0
1 0 0
1 1 0
0 1 0
0 0 0
0 0 0
1 0 0
1 1 0
0 1 0
0 0 0
0 0 0
1 0 0
1 1 0
0 1 0
0 0 0
0.481039 0 0
1 0 0
1 0.987677 0
0.481039 0 0
0 0 0
1 0 0
1 1 0
0 1 0
0 0 0
0 0 0
1 0 0
1 1 0
0 1 0
0 0 0
0 0 0
1 0 0
1 1 0
0 1 0
0 0 0
0 0 0
1 0 0
1 1 0
0 1 0
0 0 0
0 0 0
1 0 0
1 1 0
0 1 0
0 0 0
0.106158 0 0
1 0 0
1 1 0
0.739836 1 0
0.580737 0.754181 0
0.106158 0 0
0 0 0
1 0 0
1 1 0
0 1 0
0 0 0
0 0 0
1 0 0
1 1 0
0 1 0
0 0 0
0 0 0
1 0 0
1 1 0
0 1 0
0 0 0
0 0 0
1 0 0
1 1 0
0 1 0
0 0 0
0 0 0
1 0 0
1 1 0
0 1 0
0 0 0
0 0 0
1 0 0
1 1 0
0 1 0
0 0 0
0.159923 0 0
1 0 0
1 1 0
0.817385 1 0
0.754696 0.908383 0
0.159923 0 0
0 0 0
1 0 0
1 1 0
0 1 0
0 0 0
0 0 0
1 0 0
1 1 0
0 1 0
0 0 0
0 0 0
1 0 0
1 1 0
0 1 0
0 0 0
0.320227 0 0
1 0 0
1 1 0
0.868862 1 0
0.320227 0 0
0 0 0
1 0 0
1 1 0
0 1 0
0 0 0
0 0 0
1 0 0
1 1 0
0 1 0
0 0 0
0 0 0
1 0 0
1 1 0
0 1 0
0 0 0
0 0 0
1 0 0
1 1 0
0 1 0
0 0 0
0 0 0
1 0 0
1 1 0
0 1 0
0 0 0
0.362847 0 0
1 0 0
1 1 0
0.956695 1 0
0.810372 0.760486 0
0.362847 0 0
0 0 0
1 0 0
1 1 0
0 1 0
0 0 0
0 0 0
1 0 0
1 1 0
0 1 0
0 0 0
0 0 0
1 0 0
1 1 0
0 1 0
0 0 0
0 0 0
1 0 0
1 1 0
0 1 0
0 0 0
0 0 0
1 0 0
1 1 0
0 1 0
0 0 0
0 0 0
1 0 0
1 1 0
0.604335 1 0
0.100074 0.226704 0
0 0.0674725 0
0 0 0
0 0 0
1 0 0
1 1 0
0 1 0
0 0 0
0 0 0
1 0 0
1 1 0
0 1 0
0 0 0
0 0 0
1 0 0
1 1 0
0 1 0
0 0 0
0 0 0
1 0 0
1 1 0
0 1 0
0 0 0
0 0 0
1 0 0
1 1 0
0 1 0
0 0 0
0 0 0
1 0 0
1 1 0
0 1 0
0 0 0
0 0 0
1 0 0
1 1 0
0 1 0
0 0 0
0 0 0
1 0 0
1 1 0
0.479928 1 0
0 0.168813 0
0 0 0
0 0 0
1 0 0
1 1 0
0 1 0
0 0 0
0 0.00415798 0
1 0.498557 0
1 1 0
0 1 0
0 0.00415798 0
0 0 0
1 0 0
1 1 0
0 1 0
0 0 0
0 0 0
1 0 0
1 1 0
0 1 0
0 0 0
0 0 0
1 0 0
1 1 0
0 1 0
0 0 0
0.133787 0 0
1 0 0
1 1 0
0.703908 1 0
0.133787 0 0
0 0 0
1 0 0
1 1 0
0 1 0
0 0 0
0 0 0
1 0 0
1 1 0
0 1 0
0 0 0
0.0868674 0 0
1 0 0
1 1 0
0.780834 1 0
0.0868674 0 0
0 0 0
1 0 0
1 1 0
0 1 0
0 0 0
0 0 0
1 0 0
1 1 0
0 1 0
0 0 0
0 0.347146 0
0.806159 0.744557 0
1 0.845556 0
1 1 0
0 1 0
0 0.347146 0
0 0 0
1 0 0
1 1 0
0 1 0
0 0 0
0 0 0
1 0 0
1 1 0
0 1 0
0 0 0
0 0 0
1 0 0
1 1 0
0 1 0
0 0 0
0.402417 0 0
1 0 0
1 1 0
0.863435 1 0
0.785017 0.838372 0
0.411354 0.020173 0
0.402417 0 0
0 0 0
1 0 0
1 1 0
0 1 0
0 0 0
0 0 0
1 0 0
1 1 0
0 1 0
0 0 0
0 0 0
1 0 0
1 1 0
0 1 0
0 0 0
0 0.531627 0
0.104799 0.485965 0
0.444876 0.348376 0
1 0.820239 0
1 1 0
0 1 0
0 0.531627 0
0 0 0
1 0 0
1 1 0
0 1 0
0 0 0
0.354336 0.488444 0
0.595211 0 0
1 0 0
1 1 0
0.735767 1 0
0.395718 0.546171 0
0.354336 0.488444 0
0.593966 0 0
1 0 0
1 1 0
0.0831749 1 0
0.593966 0 0
0 0.339208 0
0.481274 0.547072 0
1 0.780177 0
1 1 0
0 1 0
0 0.339208 0
0.230002 0 0
1 0 0
1 1 0
0.845271 1 0
0.230002 0 0
0 0.388914 0
0.795414 0.789637 0
1 0.899524 0
1 1 0
0 1 0
0 0.388914 0
0.998638 0 0
1 0 0
1 0.000663117 0
0.998638 0 0
0 0.370453 0
0.807936 0.739984 0
1 0.83304 0
1 1 0
0 1 0
0 0.370453 0
0.562987 0.0272723 0
0.535567 0 0
1 0 0
1 0.452682 0
0.562987 0.0272723 0
0.754973 0 0
1 0 0
1 0.314374 0
0.754973 0 0
0 0.285021 0
0.52977 0.516573 0
1 0.732415 0
1 1 0
0 1 0
0 0.285021 0
0.786271 0 0
1 0 0
1 0.274932 0
0.786271 0 0
0 0 0
0.124382 0 0
0 0.0492251 0
0 0 0
0.423527 0 0
1 0 0
1 0.508017 0
0.574458 0.136216 0
0.423527 0 0
0 0.496786 0
0.562521 0.197047 0
1 0.533736 0
1 1 0
0 1 0
0 0.496786 0
0.707601 0 0
1 0 0
1 0.35955 0
0.707601 0 0
0 0 0
0.308487 0 0
0 0.193855 0
0 0 0
0.580669 0 0
1 0 0
1 0.439971 0
0.580669 0 0
0.766794 0 0
1 0 0
1 0.14922 0
0.766794 0 0
0.935201 0 0
1 0 0
1 0.114828 0
0.935201 0 0
0 0.402564 0
0.448216 0.172548 0
0.573961 0.248134 0
1 0.514911 0
1 1 0
0 1 0
0 0.402564 0
0.657987 0 0
1 0 0
1 0.244652 0
0.961387 0.218074 0
0.657987 0 0
0.896066 0 0
1 0 0
1 0.182919 0
0.896066 0 0
0 0 0
0.386593 0 0
0.276414 0.0602802 0
0 0.204482 0
0 0 0
0.991376 0 0
1 0 0
1 0.0216776 0
0.991376 0 0
0 0.474804 0
0.449641 0.254692 0
0.519506 0.222176 0
0.570139 0.251724 0
1 0.513197 0
1 1 0
0 1 0
0 0.474804 0
0.976631 0 0
1 0 0
1 0.0370019 0
0.976631 0 0
0 0.161089 0
1 0.753359 0
1 1 0
0 1 0
0 0.161089 0
0 0.673385 0
0.193249 0.591974 0
0.366978 0.522398 0
1 0.272267 0
1 1 0
0 1 0
0 0.673385 0
0.809821 0 0
1 0 0
1 0.259409 0
0.809821 0 0
0.807636 0 0
1 0 0
1 0.286939 0
0.807636 0 0
0.830171 0 0
1 0 0
1 0.245824 0
0.830171 0 0
0 0.666129 0
0.184468 0.58363 0
0.319521 0.526068 0
1 0.239929 0
1 1 0
0 1 0
0 0.666129 0
0.874101 0 0
1 0 0
1 0.0415748 0
0.887136 0.00468269 0
0.874101 0 0
0.957272 0 0
1 0 0
1 0.0832753 0
0.957272 0 0
0 0.538945 0
0.0922191 0.602719 0
0.172138 0.659248 0
0.627758 1 0
0 1 0
0 0.538945 0
0.54986 0 0
1 0 0
1 0.617617 0
0.550583 0.00107484 0
0.54986 0 0
0 0.511777 0
0.586866 1 0
0 1 0
0 0.511777 0
0.67812 0 0
1 0 0
1 0.384929 0
0.67812 0 0
0.689145 0 0
1 0 0
1 0.22698 0
0.932461 0.179212 0
0.689145 0 0
0 0.779329 0
0.430025 1 0
0 1 0
0 0.779329 0
0.36612 0 0
1 0 0
1 0.550192 0
0.886082 0.454421 0
0.36612 0 0
0 0.70158 0
0.337788 0.880448 0
0.550281 1 0
0 1 0
0 0.70158 0
0.823553 0 0
1 0 0
1 0.065626 0
0.871207 0.0188799 0
0.823553 0 0
0.505457 0 0
1 0 0
1 0.875652 0
0.835207 0.596027 0
0.505457 0 0
0 0.64404 0
0.218542 0.767564 0
0.60837 1 0
0 1 0
0 0.64404 0
0.745274 0 0
1 0 0
1 1 0
0.275134 1 0
0.525714 0.455529 0
0.745274 0 0
0.565194 0 0
1 0 0
1 0.258057 0
0.565194 0 0
0 0.217632 0
0.288942 0.48265 0
0.668451 0.841995 0
0.830505 1 0
0 1 0
0 0.217632 0
0.49239 0 0
1 0 0
1 0.504095 0
0.579449 0.0887336 0
0.49239 0 0
0.830286 0 0
1 0 0
1 0.271907 0
0.830286 0 0
0.523114 0 0
1 0 0
1 0.304041 0
0.523114 0 0
0 0.657658 0
0.11192 0.605664 0
0.939954 0.237456 0
1 0.211586 0
1 1 0
0 1 0
0 0.657658 0
0.98808 0 0
1 0 0
1 0.025174 0
0.98808 0 0
0 0.440046 0
0.728514 1 0
0 1 0
0 0.440046 0
0.618862 0 0
1 0 0
1 0.156638 0
0.618862 0 0
0 0.580117 0
0.00721005 0.584456 0
0.153762 0.67443 0
0.654334 1 0
0 1 0
0 0.580117 0
0.857036 0 0
1 0 0
1 0.177168 0
0.857036 0 0
0.449488 0 0
1 0 0
1 0.310598 0
0.449488 0 0
0 0.679577 0
1 0.292199 0
1 1 0
0 1 0
0 0.679577 0
0.686657 0 0
1 0 0
1 0.397036 0
0.686657 0 0
0 0.695292 0
0.183476 0.78637 0
0.590421 1 0
0 1 0
0 0.695292 0
0.441075 0 0
1 0 0
1 0.334141 0
0.441075 0 0
0.876742 0 0
1 0 0
1 0.217887 0
0.876742 0 0
0.593673 0 0
1 0 0
1 0.182265 0
0.593673 0 0
0 0.846525 0
0.124476 0.910899 0
0.141261 0.919961 0
0.277499 1 0
0 1 0
0 0.846525 0
0.88105 0 0
1 0 0
1 0.201167 0
0.88105 0 0
0 0.833613 0
0.400735 1 0
0 1 0
0 0.833613 0
0 0.851471 0
0.4033 1 0
0 1 0
0 0.851471 0
0.604704 0 0
1 0 0
1 0.24109 0
0.604704 0 0
0 0.927622 0
0.168226 1 0
0 1 0
0 0.927622 0
0.698901 0 0
1 0 0
1 0.173315 0
0.943605 0.142872 0
0.698901 0 0
0 0.804225 0
0.169123 0.893076 0
0.34902 1 0
0 1 0
0 0.804225 0
0.634612 0 0
1 0 0
1 0.157265 0
0.634612 0 0
0 0.848655 0
0.126158 0.910596 0
0.142086 0.918761 0
0.287413 1 0
0 1 0
0 0.848655 0
0.483137 0 0
1 0 0
1 0.280821 0
0.483137 0 0
0.474128 0 0
1 0 0
1 0.304798 0
0.474128 0 0
0 0.872829 0
0.334232 1 0
0 1 0
0 0.872829 0
0.974183 0 0
1 0 0
1 0.0284901 0
0.974183 0 0
0 0.801527 0
0.455979 1 0
0 1 0
0 0.801527 0
0 0.700508 0
0.519328 1 0
0 1 0
0 0.700508 0
0.705304 0 0
1 0 0
1 0.380272 0
0.74414 0.0533129 0
0.705304 0 0
0 0.725071 0
0.5129 1 0
0 1 0
0 0.725071 0
0 0.666576 0
0.489385 1 0
0 1 0
0 0.666576 0
0 0.689237 0
0.539841 0.979941 0
0.574121 1 0
0 1 0
0 0.689237 0
0.889438 0 0
1 0 0
1 0.0744769 0
0.889438 0 0
0 0.708262 0
0.135108 0.63692 0
0.819706 0.293806 0
1 0.206558 0
1 1 0
0 1 0
0 0.708262 0
0 0.605892 0
1 0.162821 0
1 1 0
0 1 0
0 0.605892 0
0 0.69047 0
0.216144 0.613729 0
0.483795 0.52383 0
0.953891 1 0
0 1 0
0 0.69047 0
0 0.390143 0
0.122894 0.478577 0
0.81244 1 0
0 1 0
0 0.390143 0
0 0.675976 0
0.432314 0.482434 0
0.977512 1 0
0 1 0
0 0.675976 0
0.672991 0 0
1 0 0
1 0.252205 0
0.901217 0.178214 0
0.672991 0 0
0 0.765841 0
0.154585 0.662868 0
0.680963 0.323659 0
1 0.12532 0
1 1 0
0 1 0
0 0.765841 0
0.897373 0 0
1 0 0
1 0.0481221 0
0.897373 0 0
0 0.704248 0
0.228645 0.544366 0
0.794568 0.79253 0
1 0.889145 0
1 1 0
0 1 0
0 0.704248 0
0.564426 0 0
1 0 0
1 0.30172 0
0.564426 0 0
0 0.817873 0
0.33889 0.698396 0
1 0.496657 0
1 1 0
0 1 0
0 0.817873 0
0.592383 0 0
1 0 0
1 0.245357 0
0.869425 0.170117 0
0.696443 0.0664523 0
0.592383 0 0
0.546365 0 0
1 0 0
1 0.238586 0
0.546365 0 0
0.735177 0 0
1 0 0
1 0.12469 0
0.836344 0.0499531 0
0.735177 0 0
0 0.766582 0
0.151124 0.661842 0
0.663608 0.318224 0
0.675199 0.310726 0
0.869276 0.425813 0
1 0.50522 0
1 1 0
0 1 0
0 0.766582 0
1 0.92427 0
1 1 0
0.963203 1 0
1 0.92427 0
0.645347 0 0
1 0 0
1 0.241944 0
0.871278 0.158396 0
0.645347 0 0
0 0.72519 0
0.890392 0.310173 0
1 0.260881 0
1 1 0
0 1 0
0 0.72519 0
0.796488 0 0
1 0 0
1 1 0
0.259507 1 0
0.796488 0 0
0.802523 0 0
1 0 0
1 0.103319 0
0.965613 0.0862827 0
0.802523 0 0
0 0.73992 0
0.873752 0.305643 0
1 0.245077 0
1 1 0
0 1 0
0 0.73992 0
[...]
CELL_DATA 4623
FIELD FieldData 3
weight 1 4623 float
 1.1404 1.13415 1.13448 1.1405 1.12827 1.13418 1.12823 0.990428 1.14045 1.14064 1.1407 1.01561 1.13435 1.03413 1.14062 1.13456 1.14687 0.984301 1.15314 1.14062 1.14707 1.14681 1.14697 1.14673 0.959526 1.15334 1.15325 1.1529 1.15307 1.14688 0.946634 1.14687 1.15942 0.972048 1.1467 1.14702 1.14676 1.15294 1.15334 1.15308 1.15926 0.940873 1.15305 1.15297 1.15295 1.16565 1.15924 0.990456 1.15961 1.15929 1.15333 1.15322 1.15939 1.15958 0.97175 1.15956 1.15931 1.15297 0.959149 1.15926 1.15325 1.15913 1.14711 1.15944 0.953131 1.00922 1.19702 1.02201 1.15945 1.00323 1.00318 0.996833 1.15959 1.19692 1.15944 1.04667 1.1656 1.15923 0.996728 1.16556 1.09085 1.15301 1.19675 1.15932 0.978015 1.16555 1.15937 0.965671 1.16566 1.17187 1.02809 1.16542 1.16556 1.16541 0.94665 1.16582 1.16562 1.17173 1.01566 1.16579 0.965558 0.971928 1.03448 0.953341 1.02788 0.784139 1.0283 0.890859 0.871695 1.03436 0.853281 0.80926 0.896891 1.06585 0.865451 0.79692 0.878104 0.790874 0.834325 1.10939 0.803001 0.840491 0.815395 0.821937 1.10301 0.809314 1.04049 1.02828 0.847001 0.859213 0.84039 1.0592 0.834602 0.828054 0.965728 0.928209 0.95297 0.871798 0.815566 0.928039 0.897106 0.946819 0.840522 0.934613 0.959625 0.902914 0.828007 0.990538 0.884237 0.853242 0.846897 1.00959 0.815491 0.959547 0.853098 0.965861 0.822024 0.865786 1.03413 0.878288 0.940683 0.871664 0.834403 0.859549 0.896887 0.82825 0.921735 0.921823 0.853313 0.909492 0.846726 0.92834 0.865399 0.902934 0.877938 0.884185 0.927993 0.790747 0.934517 0.940473 0.753375 0.934573 0.940686 0.965695 0.802927 0.996693 1.06541 0.98458 0.971633 0.984348 0.82208 1.00315 0.828253 1.00946 0.871752 0.971928 0.871703 0.878225 0.859236 1.00948 0.740415 0.86563 1.05942 0.909432 0.853101 1.05289 0.821786 1.07202 0.890624 0.99047 0.809496 0.884552 0.996705 0.89081 0.846962 0.977934 0.85948 0.91566 0.946706 0.840761 1.00334 0.921996 0.859204 0.953266 0.859344 0.978102 0.821626 0.890539 1.10317 0.815422 1.05334 0.884577 0.865607 1.02199 0.878357 1.01583 0.809148 0.890579 0.846747 1.04678 0.909127 0.940849 0.903333 1.06556 1.1721 0.903046 1.17186 0.884339 1.17807 1.17808 1.17803 0.890494 1.17827 0.928339 1.17817 1.17195 0.903197 1.16547 0.915702 0.934133 0.909566 1.17828 0.88454 1.17177 1.17805 0.896845 1.17814 1.18417 1.18424 0.921932 1.18445 1.17825 0.915548 1.18438 1.18422 1.18437 0.897111 1.18436 0.934269 1.17203 1.18435 1.16573 1.16566 0.946922 1.17798 1.17205 0.877998 0.840552 1.17813 1.17208 0.927912 1.16581 0.871642 1.15962 0.82821 1.16541 1.17195 1.1779 0.828179 0.959423 1.15936 0.840783 1.18456 1.17194 0.953003 0.840512 1.17827 0.934149 1.17175 1.17205 1.17211 1.16562 0.834606 1.1655 0.92201 0.846717 0.847105 1.17192 1.1842 0.846685 1.19055 0.946915 1.1907 0.853162 0.834345 1.19068 0.940425 1.1908 0.847014 0.940478 1.18413 0.946691 0.853036 1.19689 1.1905 1.19069 0.903274 1.1906 1.19664 0.847027 1.19669 1.19071 1.19073 0.897047 1.18448 0.859139 1.17837 1.17797 0.89053 0.853271 0.790453 1.19668 1.19064 0.878223 1.18452 1.17173 1.17814 0.909586 1.17803 1.17797 1.19056 1.1657 1.17189 1.16566 0.921658 1.1592 1.15937 1.1592 0.915547 1.16552 1.16538 1.172 0.903002 1.16557 1.16585 0.884405 1.16581 0.709551 0.865503 1.16542 1.17163 0.897109 1.1779 1.1717 0.815403 1.17203 0.871738 1.17803 1.17206 1.15915 0.909501 0.778239 1.14669 0.890446 1.15294 1.15303 1.14061 0.903339 1.13447 0.909342 1.1471 0.928295 1.14064 1.14674 0.928341 1.13462 1.14083 0.778272 1.15288 1.16564 0.940532 1.14667 1.15937 1.16575 1.14704 0.771901 0.934521 1.15948 1.14082 1.14082 1.14667 1.15313 1.1467 0.940854 1.13426 1.12197 1.11543 1.13431 1.12807 0.940831 0.715743 1.12789 1.11544 1.09708 1.09087 1.10961 0.747039 1.10945 0.946983 1.10305 1.13446 0.915603 1.12827 1.12184 1.14681 0.915869 1.14058 1.1346 1.12189 0.940613 1.11563 1.09059 1.12812 0.921716 1.1157 1.10334 1.15958 1.15326 1.15328 1.15932 1.15951 0.78421 1.15328 0.934363 1.14699 1.15288 1.15321 1.15313 1.14674 1.15931 1.15935 1.15924 1.16541 1.16576 1.16554 1.15328 1.15317 1.15309 1.15918 1.14664 1.14065 1.1343 1.14046 1.14052 1.1281 1.14671 1.13461 0.815814 1.14048 1.12211 1.10937 1.13432 1.128 1.12179 0.815673 1.14668 1.14045 1.12808 1.14668 1.1406 1.11543 1.10939 1.12188 0.809622 0.815726 1.12825 1.1346 1.1219 1.19068 1.19062 0.84068 0.80314 1.19674 1.19084 1.19705 0.834518 1.1846 0.809224 1.17793 1.18459 1.17203 0.85322 1.18416 1.17833 1.17831 1.19711 1.1969 1.19687 1.19081 1.1908 1.19668 1.1906 1.19065 0.852991 1.18423 1.19665 0.765496 1.19039 1.18462 1.17196 0.846958 1.17207 1.17814 1.18423 1.17813 1.17813 1.18452 1.15934 1.17179 1.19039 1.17176 1.17805 1.17803 0.821691 1.18429 1.17799 1.18448 1.18437 1.17833 1.18422 1.18435 1.18427 1.17816 0.840803 1.19665 1.1904 1.19694 1.19663 0.790412 1.19702 1.19046 1.18459 1.19069 0.803106 1.19071 1.18443 1.17811 1.19696 0.828287 1.19712 1.19702 1.19702 1.1971 1.19706 0.834386 1.19042 1.18423 1.19055 0.846843 1.19053 1.19041 1.19075 1.19087 1.18439 1.19049 0.865566 1.1782 0.846627 1.18443 1.19065 1.19084 0.9158 1.17817 1.18456 1.19056 1.19074 1.18417 0.853021 1.1844 1.19669 1.15926 1.19687 0.859586 1.19052 1.18459 1.18425 1.16559 1.16573 1.16541 1.17193 1.1717 1.15946 1.15322 0.890504 1.15297 0.865429 1.16571 1.15325 1.14663 1.17815 0.878292 1.17167 0.927961 1.17168 0.871918 1.17832 1.17834 0.909581 1.15955 0.8971 1.16545 1.15942 0.934162 1.16583 0.884504 1.16546 1.15947 1.15919 0.921941 0.878276 1.1344 0.840537 1.12791 1.14699 1.14076 0.927995 0.859211 1.14668 1.13458 1.12205 0.940694 1.12832 0.859146 1.13421 1.11541 1.15918 0.852921 1.14712 0.846866 1.15315 1.12799 0.884461 1.12817 0.872017 1.12804 1.14074 1.12212 0.865543 1.12174 0.853041 1.14059 1.12819 0.865434 1.11563 0.865466 1.17165 0.87189 0.871671 0.903108 0.82198 0.909349 0.890784 0.921831 0.965721 0.92201 0.853192 0.89064 0.928223 0.946667 0.840681 0.896831 0.928214 1.17814 0.915745 1.17181 1.16541 0.959596 1.12827 1.14071 1.153 1.14683 1.15292 1.15324 1.1345 1.14046 1.15941 1.13448 1.12166 1.13444 1.14063 0.896825 1.11573 1.11551 1.10944 1.12185 0.909609 1.14045 1.13455 0.896751 0.84706 1.14705 0.890439 0.834462 0.778166 1.12193 0.921643 0.827977 1.12791 1.13428 0.902945 0.834453 1.12204 0.809499 0.915604 1.11545 0.853031 1.1219 0.846699 1.10942 0.840408 0.815875 0.846698 1.11572 0.846703 1.10915 1.12186 0.834367 1.10933 0.847104 0.853361 0.853221 1.10305 1.11538 0.85914 0.790568 0.871783 1.07188 0.871727 1.10295 0.859185 0.878342 1.10327 0.827968 1.10301 0.85962 1.07822 1.09062 1.0842 1.09067 0.871858 1.0904 1.07803 1.07187 0.853202 1.09709 1.07211 0.865678 1.06577 0.859373 1.04697 0.872058 1.06547 0.852994 1.05333 0.871924 1.05933 0.840659 1.08425 0.80303 0.878318 1.08417 1.06539 0.890538 1.09671 0.815559 1.09043 1.06568 0.859433 1.04087 0.852981 1.05933 0.871628 1.04042 1.05913 1.05302 0.878348 0.834269 1.04691 0.884606 1.02799 1.0406 0.884175 1.01573 0.865709 1.03461 0.784418 1.04058 0.87829 1.03458 0.865551 0.821801 0.878211 0.865789 1.01578 0.890862 0.859221 0.902978 0.884377 0.859143 0.890474 0.897078 0.877929 0.896972 0.890835 0.865725 0.984554 0.903024 0.903218 0.959501 0.915407 0.884294 0.909304 0.884484 0.953341 0.896839 0.884198 0.828257 0.871788 0.890399 1.0221 0.865565 0.934213 1.00304 0.828109 0.89085 0.978144 0.83418 0.878089 0.953298 0.834619 0.965434 0.828116 0.903252 0.840382 0.85919 0.959315 1.02803 0.884157 1.02792 0.840836 0.934524 0.871739 0.865602 1.02195 1.03439 0.984405 0.846821 0.828164 0.96584 0.946886 1.02211 0.834342 0.965436 1.00925 0.878041 0.840711 0.847023 0.965765 0.922036 0.959325 0.853272 0.847094 0.928219 0.971664 0.85292 0.909521 0.877969 0.990554 0.928323 0.865526 1.00306 0.915704 0.972063 0.859271 0.978321 0.878316 0.98428 0.940638 0.972014 0.896708 1.10289 1.10957 0.959508 0.871899 1.09692 1.1154 0.872054 0.978055 1.10326 0.971951 1.10941 1.09674 1.06553 0.890772 1.07194 1.06562 1.07792 0.896891 1.07791 0.959215 0.884407 1.08449 0.903024 1.10307 1.1029 0.89679 0.990598 1.09702 0.903184 0.977884 1.10916 0.928089 1.11586 0.971878 0.909209 1.10336 0.953365 1.09669 0.909232 1.09062 0.965495 0.990821 0.915481 0.953255 0.915845 1.08427 0.947077 1.09076 1.09058 0.921706 0.978001 1.03451 0.915823 0.977943 0.997017 0.921759 1.05921 1.05915 0.984157 0.909549 0.965748 0.98446 1.0032 0.909514 1.02192 1.02791 0.971849 0.996692 0.928339 0.996856 1.00952 0.996631 1.02798 1.01574 0.909471 1.0033 1.00337 1.03444 0.99066 0.940493 0.990718 0.990592 0.98433 1.00333 0.996991 0.921742 1.0221 0.971753 0.971844 0.934245 1.01549 0.940789 1.05936 1.00937 0.965494 0.928327 1.00962 1.04672 0.997086 0.934468 0.996785 0.99047 1.02816 0.946768 1.02171 1.04076 1.02795 1.00937 1.04055 0.972058 1.04668 1.04696 1.00937 1.05309 0.940405 1.05301 1.05292 1.00337 1.05957 1.04705 1.05947 1.06564 1.05322 1.07172 0.953163 1.07822 1.0904 1.08448 0.953258 1.04038 1.10305 1.05917 1.07821 1.05302 1.07209 1.01574 1.08423 1.08442 1.09676 1.0967 0.984175 0.959413 1.0906 1.09056 1.10295 0.959551 1.02207 1.10302 0.965581 1.00957 1.00303 0.946926 1.00925 0.984352 0.934402 0.9344 0.953079 1.02837 0.940684 0.971947 0.896655 1.00927 0.834211 0.959197 1.03416 0.959615 0.959413 0.952929 1.01568 0.846709 0.928048 0.978139 1.02192 0.890817 0.965717 1.04685 0.977937 1.05915 0.865533 1.06565 0.978243 1.03461 0.859605 1.01567 1.02173 0.852993 0.99057 0.871629 0.996746 0.996707 1.0406 0.846683 0.990496 1.04704 0.859308 0.984323 1.04081 0.915613 0.984251 1.05296 0.971909 0.921693 1.05914 0.909599 1.05306 1.07197 0.946719 1.06587 1.07164 0.965746 1.08446 0.959528 1.05918 0.821836 1.06576 1.09061 0.928132 0.99057 1.07823 1.09666 1.10332 0.972118 1.09694 0.871678 0.847053 1.11567 1.07835 0.978254 0.86572 0.853139 1.02788 1.06564 1.08444 1.02187 0.878123 1.02192 1.08416 1.03431 1.07809 1.02824 1.09685 0.865687 1.01556 1.09066 0.8342 1.10294 0.878286 1.10949 1.09701 1.1155 1.1032 0.853109 1.1031 1.10947 1.01569 0.84073 0.828173 1.00962 1.03456 0.846662 1.02825 0.822047 1.02803 1.02198 0.840682 1.04044 1.04059 1.0407 0.809353 0.853165 1.05326 1.04688 0.853266 1.05325 1.03441 0.847099 1.03413 1.0404 0.834171 0.859364 0.865386 0.859223 0.815458 0.82806 0.871942 1.04683 0.840618 1.04703 0.865757 1.01546 1.02211 0.759498 0.865482 0.853088 1.00326 0.83456 0.85941 0.740584 0.997105 0.85931 1.0092 0.865755 0.765697 1.02196 0.872051 0.871636 0.878368 0.865575 0.88436 0.840721 0.853293 0.997049 0.878109 0.803145 0.984416 0.896841 0.803174 0.990563 0.871792 0.884127 0.85289 1.01565 0.840429 0.853257 1.01538 0.859382 1.02797 1.04073 0.878234 1.02799 0.821967 0.846796 1.02179 0.934231 0.803285 0.884257 0.890467 0.878337 0.846799 0.890599 0.784167 0.921928 1.04067 0.859269 1.04059 0.940479 1.04708 0.865498 1.02171 0.984276 0.871926 1.0095 1.03449 0.865446 1.00935 1.02824 0.884549 1.02809 0.953245 1.04074 0.890833 0.946968 0.877927 0.940692 0.978138 0.890835 0.90953 0.890564 0.971925 0.896779 0.88445 0.940618 0.953117 0.896688 0.896651 0.903129 0.940441 0.946741 0.903261 0.909518 0.928153 0.965511 0.915476 0.865712 0.921757 0.934332 0.902882 0.890843 0.896674 0.946717 0.934574 0.90314 0.959159 0.903124 0.884598 0.915813 0.921916 0.896838 0.921631 0.853203 0.990819 0.909434 0.903081 0.921715 0.959477 0.953158 0.903353 0.965439 0.890746 0.93423 0.952994 0.884148 0.928144 0.759193 0.984487 0.953245 0.928188 0.947062 0.934306 0.940855 0.922109 0.978354 0.928301 0.884592 0.884405 0.940721 0.878285 0.890406 0.972114 0.802995 0.878366 0.971828 0.90311 0.897093 0.965743 0.871951 0.89702 0.984194 0.827882 0.965849 0.8345 0.828128 0.828316 0.82175 0.84075 0.871859 0.959558 0.796657 0.853209 0.846866 0.865508 0.947098 0.859512 0.803363 0.946851 0.865707 0.965541 0.87184 0.959413 0.847045 0.896649 0.827982 0.953102 0.834342 0.897063 0.784384 0.965434 0.828321 0.928262 0.909369 0.953101 0.85916 0.871718 0.934402 0.921825 0.940741 0.86569 0.859465 0.915609 0.952979 0.846884 0.871746 0.959593 0.909388 0.940479 0.834349 0.909292 0.96584 0.928339 0.915722 0.902942 0.890418 0.809372 0.897015 0.90927 0.909326 0.82801 0.903178 0.759577 0.896685 0.734589 0.934601 0.815746 0.927918 0.922072 0.790649 0.934459 0.771826 0.965627 0.815417 0.940781 0.840485 0.834484 0.877946 0.971903 0.853002 0.859459 0.809268 0.934496 0.921935 0.853033 0.990732 0.915425 0.821987 0.915645 0.840744 0.915764 0.921664 0.834414 0.903223 0.840473 0.87835 0.915423 0.878013 0.846993 0.902954 0.947 0.934458 0.928302 0.872083 0.927877 0.952886 0.840795 0.940846 0.877936 0.971762 1.11579 1.10915 0.877997 1.10318 0.959354 1.10922 1.10328 0.953118 0.884159 1.09695 1.00303 1.08434 0.990843 0.884464 1.07821 0.990459 0.884524 1.03439 0.978299 0.890737 1.07199 1.09664 1.05324 1.01576 0.897082 0.87163 1.00325 1.02807 1.08439 0.877958 0.996989 0.890531 1.00333 1.0717 0.977896 0.890423 1.04676 1.07163 0.971842 1.11553 0.909618 1.03449 0.996857 1.10919 0.903024 1.10934 1.10303 0.896861 1.0967 1.07185 1.09066 0.903197 1.04698 0.990676 1.09039 0.915735 0.98432 1.07797 0.909563 0.984294 1.09074 1.05956 0.990477 1.07825 1.07195 1.01566 0.9281 1.09668 1.02163 0.971647 0.92167 1.00924 1.09676 1.03432 0.996858 1.03416 1.09086 1.02818 0.928173 1.02205 1.07199 1.02209 1.05298 1.05317 1.00312 0.934183 1.03432 1.04077 0.915642 1.00328 1.04667 1.05332 0.996814 0.91551 1.04706 1.03428 1.01587 0.934333 1.04062 1.0405 1.00934 1.06542 0.93432 1.02194 1.00955 0.922004 1.07209 1.01555 1.08433 0.990771 1.09073 0.94681 1.00933 1.09065 1.00953 1.0971 0.88417 1.01586 1.10916 0.978246 1.09704 0.865588 1.10958 0.97183 1.09052 1.05333 1.09055 0.89039 1.10306 0.984602 1.06582 0.902969 1.08418 0.978038 1.05306 1.07837 0.959167 1.08434 1.06542 0.909355 1.07189 1.04664 0.896657 1.07795 0.903169 0.990813 1.07182 0.947101 0.909297 1.00333 1.07812 0.88439 0.953113 0.996645 1.08423 1.10303 0.940405 1.04059 0.89671 1.10294 0.959127 0.89698 1.04671 0.959299 1.08413 0.915591 1.00924 1.09692 0.921676 0.947117 1.10333 0.922027 1.00303 1.08439 0.927951 1.00947 0.921734 1.07197 1.01585 1.09682 0.990809 0.984429 1.0907 0.990607 0.93449 0.977897 1.0596 0.98421 1.04062 1.08424 0.996739 1.01559 0.915409 1.07807 1.02212 1.00336 1.05333 1.04699 0.940833 1.00292 1.07806 1.03454 0.946668 1.06581 1.04704 0.940784 1.05961 1.07194 0.940687 0.959503 0.978049 1.0783 0.996766 0.965682 0.928107 1.08428 0.96582 0.928238 1.00932 1.07797 0.971935 0.978334 0.934166 1.06553 1.00309 0.996889 0.953253 1.05953 1.02821 0.984167 1.07208 0.97164 0.946756 1.05308 1.02826 0.87818 0.884138 0.890874 0.884398 0.890852 0.902928 0.896837 0.88445 0.903123 0.909549 0.915786 0.921784 0.921689 0.896899 0.90945 0.915539 0.902904 0.921653 0.934562 0.928293 0.947033 0.928079 1.02208 0.940632 0.934189 1.06585 0.953261 0.909332 1.03456 1.05947 0.921933 0.915583 1.04684 1.01574 0.934443 1.0593 0.928098 1.01539 0.940527 1.05934 0.92791 1.05917 0.927918 1.06565 0.94074 1.04665 1.06571 0.934477 1.0468 1.07813 0.934301 1.02809 1.06571 0.940484 1.04068 1.05946 1.03452 0.946712 1.07822 1.03423 0.940453 1.09705 0.946809 1.04055 1.10311 0.953267 1.09055 1.02789 0.953268 0.978291 1.0845 1.02168 0.959402 1.09055 0.972003 1.03438 1.09663 0.959523 1.05305 1.05304 0.946916 1.00923 0.953209 1.04054 0.965609 0.977883 1.04071 1.05325 0.959536 1.02826 1.0655 0.927894 1.02171 1.04085 0.940412 1.05337 1.0033 0.947003 1.05916 0.990431 0.934318 1.05962 0.996906 0.947092 1.01557 1.06546 0.953183 0.984168 0.95931 1.07816 0.965838 1.02799 0.959522 1.07174 0.978118 0.971846 1.07207 1.09079 0.972051 0.965453 1.09681 1.1155 1.10949 0.971956 1.11586 1.12203 0.959151 1.12195 0.965789 1.12816 1.122 0.977954 1.12813 0.97169 0.846686 1.12801 1.10927 1.1282 0.959135 0.946675 1.13447 0.84062 1.1093 1.1094 1.12202 0.965771 1.14054 0.921956 1.13437 0.959142 0.915789 1.12805 1.13417 1.14671 0.87181 0.965721 1.14046 1.1219 1.14071 0.984156 0.915629 1.14703 0.971765 1.13422 1.1343 0.909572 1.14698 0.978282 1.15304 1.15931 0.978203 1.15314 0.978124 1.15925 1.16571 0.859343 1.16561 0.940462 1.1407 0.990794 1.15957 1.15943 0.984465 1.15315 0.990828 1.14706 1.15332 1.16567 1.15915 0.934232 0.996965 1.17182 0.853306 1.16587 0.940707 0.997 1.15927 0.859255 1.16543 1.12184 0.959603 1.12201 0.965792 1.12816 0.865828 1.11579 0.965808 1.13413 1.12799 0.984279 1.14062 0.90913 0.877934 1.14687 0.990472 1.15293 0.871633 0.934243 1.13449 0.984324 1.14069 0.865861 1.14076 0.940507 1.12164 0.996757 1.11553 1.12191 0.984536 1.11541 0.890622 1.12173 1.12811 1.13452 0.947029 1.12796 0.990438 1.13432 1.15929 0.847122 1.14673 0.990473 0.840416 0.834279 1.14708 1.00307 1.17207 1.16544 1.17794 0.834361 1.15316 0.996827 1.17163 1.1654 0.828331 1.14072 0.809324 1.00312 1.14699 0.840448 1.1529 0.990755 0.859444 1.15305 0.83446 1.14691 1.14084 1.0029 1.14706 1.00952 1.15296 1.15938 1.1594 1.15921 1.00957 1.15319 1.15931 1.01573 1.16549 1.17183 1.16572 1.00959 1.16583 1.17211 1.1718 1.01586 1.17184 1.15927 1.16547 1.16572 1.16581 1.16576 1.02163 1.1779 1.00958 1.16581 1.17207 0.859407 1.17173 1.17815 1.01566 1.17808 1.02798 1.1719 1.18419 1.02184 1.18441 1.04067 1.17806 0.853098 1.16542 0.934564 1.16562 0.865389 1.17196 1.16574 1.17199 0.946754 1.17168 1.17176 1.17198 0.940574 1.17794 1.17816 1.17832 1.17211 1.17209 0.946693 1.17809 1.17169 1.17171 1.17174 1.17205 1.17811 0.953246 1.17795 0.959242 1.17824 1.17834 1.18446 0.984601 0.953208 1.17212 1.17208 1.17792 1.1718 1.00331 0.971809 0.822016 0.953137 1.178 0.978071 1.18427 1.17171 1.17815 1.18419 1.0154 1.17837 0.95945 0.984621 1.17803 0.990389 0.95298 1.16564 1.16541 0.928226 1.17814 0.965705 1.17184 1.17802 0.897039 0.971991 1.19038 1.19071 1.19086 0.865665 1.1844 0.959498 1.18416 1.17799 0.915584 0.965449 1.17817 0.965446 1.17166 1.17817 0.928081 1.1782 1.18444 0.978147 1.17799 0.921759 0.971696 1.18446 1.18416 0.990453 1.17804 0.865717 1.18422 1.1844 1.17811 0.884535 0.971824 1.18435 1.19085 1.19064 1.00316 1.18462 0.984322 1.18436 0.965779 1.18425 1.18441 0.977965 0.952953 1.18439 0.978213 1.19086 1.17819 0.965436 1.10922 1.11566 1.11554 0.971892 0.984378 1.12168 0.990865 1.10952 0.921884 1.12806 0.990396 1.12834 0.915618 1.14039 1.13449 0.890461 1.1346 1.14061 1.14086 0.902925 1.11561 0.959323 1.1217 0.921815 1.12195 1.12817 0.965554 0.865823 1.11578 1.10942 1.11584 0.871711 1.13457 1.14695 1.14086 0.952876 1.14056 1.12801 1.13457 0.96539 1.1471 0.877944 1.147 0.971808 1.15288 1.15299 0.971648 1.15945 1.15313 1.15953 1.16547 1.15921 1.15947 1.1654 1.16577 1.16546 0.978003 1.16544 1.15293 1.16578 1.14697 1.15942 1.15929 0.959476 1.172 1.17194 1.17164 0.859508 1.15321 1.17813 1.10296 1.10944 0.977988 1.09707 1.11574 1.13419 1.12184 1.13454 1.12827 1.11569 1.12812 0.978308 1.09053 1.10952 1.09709 0.984513 1.07819 0.978287 1.19669 0.997106 1.19071 1.10309 1.19708 0.990389 1.19687 1.09054 1.19045 1.10295 1.18422 1.12164 1.10961 1.19081 1.122 1.1907 1.00311 1.19666 1.00919 1.09693 1.19042 1.00329 1.09705 1.19707 1.14691 0.98433 1.19687 1.15337 1.16567 1.1908 0.996994 1.12832 1.19676 1.15952 1.19686 1.13456 1.19053 1.14691 1.19667 1.17797 1.12834 1.15315 1.17166 0.984486 1.15914 1.08461 1.1655 1.19672 1.10957 1.13413 0.990742 1.01564 1.14067 1.00916 1.15335 1.0157 1.13413 1.003 1.18445 1.10304 1.15337 0.984263 1.09671 1.14706 1.12208 1.17208 1.15323 1.14038 0.996673 1.12207 1.12186 1.12788 0.997103 1.1658 1.14078 1.15917 1.14663 1.1407 0.996765 1.17178 1.10293 1.18428 1.19675 1.17212 1.00324 1.14673 1.17184 1.12788 1.17823 1.0094 1.10295 1.17803 1.10936 1.19054 1.11546 1.0031 1.13423 1.18417 1.10333 1.17804 1.1095 1.00295 1.10334 1.19085 1.19667 1.17182 1.19678 1.00312 1.17196 1.09065 0.996646 1.17811 1.11569 1.17178 1.19682 1.17803 1.19686 1.18454 1.11587 1.19044 1.14707 1.00922 1.18454 1.11539 1.18425 1.16564 1.18453 1.07828 1.1908 1.12173 1.1842 1.01577 1.10933 1.18413 1.19683 1.18428 1.14083 1.19701 1.19052 1.19064 1.19705 1.18454 1.00917 1.17799 1.01558 1.02195 1.09678 1.18428 1.097 1.03427 1.19079 1.04671 1.18429 1.02795 1.02202 1.18427 1.06544 1.02793 1.19058 1.03416 1.19064 1.0221 1.19676 1.07212 1.19081 1.09051 1.03455 1.09672 1.04695 1.19693 1.00954 1.09061 1.00943 1.19042 1.09083 1.01569 1.1842 1.02182 1.0