# vtk DataFile Version 3.0
vtk output
ASCII
DATASET UNSTRUCTURED_GRID
POINTS 44495 float
0 0 0
0.00678345 0 0
0.0100253 0.0154502 0
0 0.0166102 0
0 0 0
0.00678345 0 0
0.0174313 0 0
0.0179443 0.0118487 0
0.013675 0.0151339 0
0.0101805 0.0155129 0
0.0100253 0.0154502 0
0.00678345 0 0
0.0179443 0.0118487 0
0.0174313 0 0
0.0311375 0 0
0.0263765 0.012682 0
0.0179443 0.0118487 0
0 0.0166102 0
0.0100253 0.0154502 0
0.0101805 0.0155129 0
0.00982283 0.0287324 0
0.00649447 0.0302977 0
0 0.028993 0
0 0.0166102 0
0.0209318 0.0299641 0
0.0185782 0.0310634 0
0.00982283 0.0287324 0
0.0101805 0.0155129 0
0.013675 0.0151339 0
0.0223971 0.0255307 0
0.0209318 0.0299641 0
0.013675 0.0151339 0
0.0179443 0.0118487 0
0.0263765 0.012682 0
0.0303305 0.0177756 0
0.0287282 0.02124 0
0.0223971 0.0255307 0
0.013675 0.0151339 0
0.0209318 0.0299641 0
0.0223971 0.0255307 0
0.0287282 0.02124 0
0.036655 0.0328844 0
0.029627 0.0373051 0
0.0209318 0.0299641 0
0.0311375 0 0
0.0325773 0 0
0.0394679 0.0136779 0
0.0375295 0.0164513 0
0.0303305 0.0177756 0
0.0263765 0.012682 0
0.0311375 0 0
0.0325773 0 0
0.0489067 0 0
0.044127 0.0121731 0
0.0394679 0.0136779 0
0.0325773 0 0
0.0531463 0 0
0.067889 0 0
0.065974 0.0120898 0
0.0655937 0.0123874 0
0.0575595 0.0111972 0
0.0531463 0 0
0.044127 0.0121731 0
0.0489067 0 0
0.0531463 0 0
0.0575595 0.0111972 0
0.0523366 0.0164284 0
0.044127 0.0121731 0
0.462435 0.460865 0
0.459504 0.454274 0
0.464076 0.447535 0
0.473368 0.448456 0
0.475612 0.45624 0
0.470498 0.462313 0
0.462435 0.460865 0
0.0525046 0.0213034 0
0.0523366 0.0164284 0
0.0575595 0.0111972 0
0.0655937 0.0123874 0
0.0655725 0.0230585 0
0.0637667 0.0243943 0
0.0525046 0.0213034 0
0.927337 0.444371 0
0.93198 0.440926 0
0.940597 0.44505 0
0.935759 0.457888 0
0.933618 0.458591 0
0.930489 0.457485 0
0.927337 0.444371 0
0.462435 0.460865 0
0.470498 0.462313 0
0.473648 0.470676 0
0.467541 0.476442 0
0.460039 0.474798 0
0.45767 0.46781 0
0.462435 0.460865 0
0.0378113 0.0328532 0
0.0431271 0.0250663 0
0.0493166 0.0250475 0
0.0526014 0.0351975 0
0.0521343 0.0360034 0
0.043643 0.0390417 0
0.0378113 0.0328532 0
0.91777 0.446756 0
0.920176 0.443921 0
0.927337 0.444371 0
0.930489 0.457485 0
0.923753 0.459607 0
0.919246 0.457504 0
0.91777 0.446756 0
0.442806 0.957761 0
0.443172 0.957388 0
0.456129 0.961744 0
0.45501 0.972232 0
0.45228 0.973086 0
0.441608 0.966733 0
0.442806 0.957761 0
0.0431271 0.0250663 0
0.0375295 0.0164513 0
0.0394679 0.0136779 0
0.044127 0.0121731 0
0.0523366 0.0164284 0
0.0525046 0.0213034 0
0.0493166 0.0250475 0
0.0431271 0.0250663 0
0.451157 0.452928 0
0.459504 0.454274 0
0.462435 0.460865 0
0.45767 0.46781 0
0.447614 0.465948 0
0.445957 0.460518 0
0.451157 0.452928 0
0.450275 0.947095 0
0.451656 0.947255 0
0.461724 0.957247 0
0.456129 0.961744 0
0.443172 0.957388 0
0.444463 0.952089 0
0.450275 0.947095 0
0.908789 0.464035 0
0.90986 0.461976 0
0.919246 0.457504 0
0.923753 0.459607 0
0.9224 0.47163 0
0.915719 0.472405 0
0.908789 0.464035 0
0.0287282 0.02124 0
0.0303305 0.0177756 0
0.0375295 0.0164513 0
0.0431271 0.0250663 0
0.0378113 0.0328532 0
0.036655 0.0328844 0
0.0287282 0.02124 0
0.0493166 0.0250475 0
0.0525046 0.0213034 0
0.0637667 0.0243943 0
0.0619731 0.032544 0
0.0526014 0.0351975 0
0.0493166 0.0250475 0
0.923753 0.459607 0
0.930489 0.457485 0
0.933618 0.458591 0
0.933153 0.470548 0
0.927588 0.474605 0
0.9224 0.47163 0
0.923753 0.459607 0
0.456129 0.961744 0
0.461724 0.957247 0
0.46344 0.957181 0
0.466658 0.959974 0
0.465321 0.972889 0
0.460175 0.97505 0
0.45501 0.972232 0
0.456129 0.961744 0
0.477336 0.443021 0
0.486826 0.44472 0
0.489415 0.450568 0
0.484594 0.458172 0
0.475612 0.45624 0
0.473368 0.448456 0
0.477336 0.443021 0
0 0.028993 0
0.00649447 0.0302977 0
0.0095806 0.0450974 0
0.00901147 0.045703 0
0 0.0471854 0
0 0.028993 0
0.880039 0.482865 0
0.879328 0.472893 0
0.879773 0.472424 0
0.890806 0.471427 0
0.893272 0.473489 0
0.89124 0.483158 0
0.885378 0.486019 0
0.880039 0.482865 0
0.461299 0.440238 0
0.467659 0.432974 0
0.47539 0.436167 0
0.477336 0.443021 0
0.473368 0.448456 0
0.464076 0.447535 0
0.461299 0.440238 0
0.00649447 0.0302977 0
0.00982283 0.0287324 0
0.0185782 0.0310634 0
0.0160982 0.0431672 0
0.0095806 0.0450974 0
0.00649447 0.0302977 0
0.475827 0.937988 0
0.491257 0.940732 0
0.491936 0.945488 0
0.480678 0.951392 0
0.474335 0.946165 0
0.475827 0.937988 0
0.0208151 0.0454707 0
0.0291292 0.0418238 0
0.0347131 0.0473791 0
0.0343525 0.0498461 0
0.0268215 0.0559777 0
0.0210904 0.0547708 0
0.0208151 0.0454707 0
0.486826 0.44472 0
0.492567 0.435593 0
0.499598 0.43852 0
0.502074 0.44847 0
0.499558 0.452168 0
0.489415 0.450568 0
0.486826 0.44472 0
0.491257 0.940732 0
0.492072 0.938268 0
0.498637 0.932818 0
0.505552 0.936839 0
0.50334 0.948211 0
0.496273 0.947895 0
0.491936 0.945488 0
0.491257 0.940732 0
0.473648 0.470676 0
0.470498 0.462313 0
0.475612 0.45624 0
0.484594 0.458172 0
0.486534 0.463063 0
0.480774 0.472087 0
0.473648 0.470676 0
0.893272 0.473489 0
0.90028 0.472601 0
0.906078 0.479883 0
0.901777 0.487996 0
0.90098 0.48829 0
0.89124 0.483158 0
0.893272 0.473489 0
0.489415 0.450568 0
0.499558 0.452168 0
0.501099 0.457836 0
0.495868 0.465437 0
0.486534 0.463063 0
0.484594 0.458172 0
0.489415 0.450568 0
0.480641 0.951699 0
0.493474 0.964879 0
0.493718 0.965703 0
0.479569 0.967969 0
0.479146 0.967874 0
0.47526 0.959987 0
0.480641 0.951699 0
0.0208151 0.0454707 0
0.0160982 0.0431672 0
0.0185782 0.0310634 0
0.0209318 0.0299641 0
0.029627 0.0373051 0
0.0291292 0.0418238 0
0.0208151 0.0454707 0
0.45767 0.46781 0
0.460039 0.474798 0
0.454882 0.48053 0
0.445741 0.478761 0
0.443421 0.472428 0
0.447614 0.465948 0
0.45767 0.46781 0
0.880039 0.482865 0
0.885378 0.486019 0
0.885777 0.496419 0
0.885093 0.497308 0
0.878031 0.499015 0
0.870776 0.487068 0
0.880039 0.482865 0
0.457548 0.489579 0
0.454882 0.48053 0
0.460039 0.474798 0
0.467541 0.476442 0
0.469624 0.484401 0
0.464588 0.490696 0
0.460412 0.491614 0
0.457548 0.489579 0
0.468929 0.947457 0
0.474335 0.946165 0
0.480678 0.951392 0
0.480641 0.951699 0
0.47526 0.959987 0
0.466658 0.959974 0
0.46344 0.957181 0
0.468929 0.947457 0
0.0115302 0.0563993 0
0.00901147 0.045703 0
0.0095806 0.0450974 0
0.0160982 0.0431672 0
0.0208151 0.0454707 0
0.0210904 0.0547708 0
0.0166158 0.0579738 0
0.0115302 0.0563993 0
0.885378 0.486019 0
0.89124 0.483158 0
0.90098 0.48829 0
0.896961 0.49616 0
0.885777 0.496419 0
0.885378 0.486019 0
0.00277579 0.0609532 0
0.0115302 0.0563993 0
0.0166158 0.0579738 0
0.0186851 0.0685091 0
0.018327 0.0688978 0
0.0111507 0.0699177 0
0.00277579 0.0609532 0
0.443015 0.496112 0
0.443627 0.494265 0
0.457548 0.489579 0
0.460412 0.491614 0
0.457629 0.504643 0
0.457463 0.504741 0
0.44598 0.501891 0
0.443015 0.496112 0
0.496273 0.947895 0
0.50334 0.948211 0
0.50554 0.94995 0
0.506296 0.953713 0
0.498334 0.966816 0
0.495166 0.966848 0
0.493718 0.965703 0
0.493474 0.964879 0
0.496273 0.947895 0
0 0.0471854 0
0.00901147 0.045703 0
0.0115302 0.0563993 0
0.00277579 0.0609532 0
0 0.0607452 0
0 0.0471854 0
0.904554 0.465122 0
0.908789 0.464035 0
0.915719 0.472405 0
0.912001 0.478829 0
0.906078 0.479883 0
0.90028 0.472601 0
0.904554 0.465122 0
0.445741 0.478761 0
0.454882 0.48053 0
0.457548 0.489579 0
0.443627 0.494265 0
0.440878 0.485558 0
0.445741 0.478761 0
0.0166158 0.0579738 0
0.0210904 0.0547708 0
0.0268215 0.0559777 0
0.0294641 0.0657624 0
0.026815 0.0685047 0
0.0186851 0.0685091 0
0.0166158 0.0579738 0
0.491936 0.945488 0
0.496273 0.947895 0
0.493474 0.964879 0
0.480641 0.951699 0
0.480678 0.951392 0
0.491936 0.945488 0
0.915719 0.472405 0
0.9224 0.47163 0
0.927588 0.474605 0
0.92761 0.474777 0
0.919841 0.488341 0
0.91902 0.488212 0
0.912001 0.478829 0
0.915719 0.472405 0
0.029627 0.0373051 0
0.036655 0.0328844 0
0.0378113 0.0328532 0
0.043643 0.0390417 0
0.0423154 0.04361 0
0.0347131 0.0473791 0
0.0291292 0.0418238 0
0.029627 0.0373051 0
0.460412 0.491614 0
0.464588 0.490696 0
0.473818 0.500077 0
0.468948 0.507636 0
0.457629 0.504643 0
0.460412 0.491614 0
0.441608 0.966733 0
0.45228 0.973086 0
0.445971 0.98492 0
0.444639 0.985134 0
0.441838 0.983792 0
0.437951 0.9697 0
0.441608 0.966733 0
0.92761 0.474777 0
0.936173 0.484951 0
0.934294 0.489934 0
0.92191 0.490211 0
0.919841 0.488341 0
0.92761 0.474777 0
0.0423154 0.04361 0
0.043643 0.0390417 0
0.0521343 0.0360034 0
0.0568181 0.0461487 0
0.0525857 0.0514906 0
0.0508279 0.0518773 0
0.0423154 0.04361 0
0.480774 0.472087 0
0.483404 0.47637 0
0.479669 0.485848 0
0.469624 0.484401 0
0.467541 0.476442 0
0.473648 0.470676 0
0.480774 0.472087 0
0.45228 0.973086 0
0.45501 0.972232 0
0.460175 0.97505 0
0.460461 0.985114 0
0.452598 0.988132 0
0.445971 0.98492 0
0.45228 0.973086 0
0.901777 0.487996 0
0.906078 0.479883 0
0.912001 0.478829 0
0.91902 0.488212 0
0.910658 0.493698 0
0.901777 0.487996 0
0.0633522 0.0455292 0
0.0568181 0.0461487 0
0.0521343 0.0360034 0
0.0526014 0.0351975 0
0.0619731 0.032544 0
0.0676661 0.0378316 0
0.0633522 0.0455292 0
0.480774 0.472087 0
0.486534 0.463063 0
0.495868 0.465437 0
0.498016 0.471776 0
0.492999 0.47767 0
0.483404 0.47637 0
0.480774 0.472087 0
0.483404 0.47637 0
0.492999 0.47767 0
0.495656 0.486261 0
0.49073 0.491031 0
0.481977 0.49005 0
0.479669 0.485848 0
0.483404 0.47637 0
0.469624 0.484401 0
0.479669 0.485848 0
0.481977 0.49005 0
0.477736 0.499034 0
0.473818 0.500077 0
0.464588 0.490696 0
0.469624 0.484401 0
0.481977 0.49005 0
0.49073 0.491031 0
0.493466 0.500646 0
0.486767 0.50735 0
0.477736 0.499034 0
0.481977 0.49005 0
0.49073 0.491031 0
0.495656 0.486261 0
0.504255 0.488011 0
0.505484 0.489718 0
0.503115 0.502116 0
0.493466 0.500646 0
0.49073 0.491031 0
0.498223 0 0
0.513711 0 0
0.512564 0.00765069 0
0.504383 0.0114178 0
0.499056 0.00766663 0
0.498223 0 0
0.513711 0 0
0.525412 0 0
0.526295 0.00621044 0
0.519363 0.0136513 0
0.512564 0.00765069 0
0.513711 0 0
0.519363 0.0136513 0
0.526295 0.00621044 0
0.537037 0.0123153 0
0.535971 0.016472 0
0.523246 0.0192626 0
0.519599 0.0159237 0
0.519363 0.0136513 0
0.471418 0.975566 0
0.473642 0.984796 0
0.473032 0.986121 0
0.465501 0.988022 0
[...]
CELL_DATA 6400
FIELD FieldData 3
weight 1 6400 float
 0.0524797 0.0525497 0.0526392 0.0525481 0.0526304 0.0526646 0.0527619 0.0527278 0.0527901 0.0529252 0.0528648 0.0548021 0.0529476 0.0531363 0.0547468 0.0528829 0.0532019 0.0507296 0.0528509 0.0547724 0.050837 0.0531878 0.0527998 0.0529585 0.053108 0.0507198 0.0548229 0.0525982 0.0533407 0.0548429 0.0526544 0.0510291 0.052794 0.0548459 0.0510447 0.0547735 0.0532575 0.0547997 0.0508216 0.052725 0.0547242 0.0533379 0.0546887 0.050868 0.0527056 0.0532512 0.0527049 0.0546287 0.0508545 0.0526221 0.0532155 0.054674 0.0528037 0.0508804 0.0531067 0.0528282 0.0546289 0.0506164 0.053035 0.0529534 0.0547132 0.050541 0.0531475 0.0530152 0.0547518 0.0547043 0.054671 0.0546546 0.0546663 0.0546411 0.05464 0.0546798 0.050561 0.0546835 0.0528947 0.0531497 0.0547256 0.0503611 0.0529671 0.0547156 0.0503861 0.0529263 0.052984 0.0506611 0.0530287 0.054644 0.0507336 0.0546335 0.0530657 0.0530575 0.050697 0.0546228 0.0529952 0.0530557 0.0531396 0.054715 0.0506363 0.0530668 0.0530042 0.0547239 0.050381 0.0531004 0.0546796 0.0530191 0.0530261 0.050508 0.0546813 0.052935 0.0530427 0.050441 0.0548079 0.0531479 0.0530288 0.0504137 0.0547702 0.053197 0.0528931 0.0532073 0.0547648 0.0532859 0.052931 0.0547907 0.0546051 0.0528219 0.0533431 0.0547455 0.0532874 0.052838 0.054606 0.0548563 0.0527561 0.0532115 0.0548218 0.0526967 0.0532914 0.0544906 0.0548327 0.0528081 0.053359 0.0547611 0.0527134 0.0545555 0.0547258 0.0526581 0.0531006 0.0545443 0.0548096 0.0529086 0.0531231 0.054546 0.0548274 0.0531928 0.0529999 0.0545933 0.0547764 0.0531435 0.0528467 0.0545033 0.0546525 0.0531878 0.0546042 0.0529077 0.0545281 0.0546255 0.0533132 0.0545821 0.054487 0.0532276 0.0546158 0.0528707 0.0544238 0.0532664 0.0546912 0.052807 0.0546586 0.0544777 0.0533501 0.0546613 0.0527487 0.0544138 0.053448 0.054532 0.052734 0.0545474 0.053372 0.0543768 0.0545718 0.0533094 0.052725 0.0543512 0.0545022 0.053385 0.054339 0.0525961 0.0546033 0.0544529 0.0526358 0.0534518 0.0546172 0.054393 0.0526436 0.0545609 0.053545 0.0544383 0.0547414 0.0527538 0.052602 0.0543898 0.0547547 0.0526767 0.0525314 0.0543328 0.0546943 0.0528378 0.0524743 0.0547181 0.0527107 0.0545762 0.0547937 0.0524443 0.0527801 0.0545044 0.0548056 0.0525629 0.0528676 0.0547659 0.0545664 0.0525773 0.0529253 0.0546729 0.0545262 0.0524746 0.0529572 0.0546622 0.0523623 0.0531181 0.0544813 0.0546609 0.0524319 0.0530231 0.054459 0.054599 0.0525458 0.0531002 0.0545321 0.0547678 0.0527088 0.052987 0.0547174 0.0544978 0.0530441 0.0527558 0.0547046 0.0544237 0.0531283 0.0544623 0.0548837 0.0543619 0.052859 0.0548983 0.0527429 0.0544189 0.0548711 0.0526437 0.0528377 0.0544105 0.0548741 0.0528971 0.0543735 0.052651 0.0549324 0.0528704 0.0543487 0.0527243 0.0527557 0.0543922 0.0549232 0.0529741 0.0527357 0.054908 0.0543141 0.0528877 0.0548706 0.0523637 0.0542834 0.0529901 0.054843 0.0543443 0.0523113 0.0530812 0.0548679 0.0543215 0.052404 0.0548423 0.0532037 0.054285 0.0524916 0.0549102 0.0531343 0.0522765 0.0542603 0.0548922 0.0530748 0.0522243 0.054961 0.0541969 0.052451 0.0530652 0.0549688 0.0542329 0.0523318 0.0549434 0.0531485 0.0543109 0.0525597 0.0549847 0.0532107 0.0525829 0.0542871 0.0549991 0.0531743 0.05416 0.0526529 0.0549836 0.0532086 0.0541509 0.0549713 0.0532624 0.052513 0.0549541 0.0542272 0.0533219 0.0524938 0.0549385 0.0542766 0.0531953 0.0549314 0.0526379 0.0542422 0.0550019 0.0532466 0.0528999 0.0541459 0.053329 0.0550019 0.0542039 0.0529612 0.0549742 0.0534092 0.0541623 0.0530465 0.054841 0.0534934 0.0540661 0.054805 0.0529132 0.0534158 0.0548393 0.0541118 0.0528195 0.054903 0.0536077 0.0548706 0.0530005 0.0540286 0.0535191 0.0548783 0.0548018 0.0532587 0.0531182 0.0539627 0.0547807 0.0534113 0.0539913 0.0533482 0.0547592 0.0532298 0.0540661 0.0533685 0.0540985 0.0547409 0.0532922 0.0540196 0.0548429 0.0533258 0.0548188 0.0531674 0.0539349 0.0532806 0.0540006 0.0547978 0.0530472 0.0534458 0.0549108 0.0539306 0.0535011 0.0549136 0.0532266 0.0542091 0.0548791 0.0534641 0.0527749 0.0542447 0.0549724 0.0541428 0.0536038 0.0528635 0.0549439 0.0535717 0.054213 0.052734 0.0549452 0.054127 0.0528175 0.053531 0.0548422 0.0541615 0.05488 0.0529276 0.0536379 0.0541957 0.0548376 0.0526587 0.0549072 0.0537018 0.0541238 0.0527603 0.0540908 0.0548728 0.0536142 0.0530048 0.0544666 0.0540235 0.0533935 0.0531124 0.0545153 0.0540863 0.0534078 0.0544147 0.0540094 0.0534733 0.053078 0.0544758 0.0540601 0.0535231 0.0529173 0.0540017 0.0534589 0.0545434 0.0528952 0.0534788 0.0545491 0.0539038 0.0535563 0.0529609 0.0544993 0.0539456 0.0535606 0.0543653 0.0522133 0.0539324 0.0536082 0.0544422 0.0520778 0.0535937 0.054055 0.0543238 0.0521613 0.0536514 0.0543885 0.0539746 0.0522536 0.0536861 0.0544537 0.0520288 0.0537052 0.0539407 0.0544156 0.0520935 0.0536371 0.0538962 0.0522002 0.0546055 0.0536699 0.0538861 0.0521628 0.054528 0.0537722 0.0524268 0.0545915 0.0538206 0.0537676 0.0523792 0.0546444 0.0534547 0.0544272 0.0525428 0.0535557 0.0546961 0.054364 0.0522494 0.0536336 0.0546116 0.0523215 0.0544335 0.0545471 0.0535354 0.0544934 0.0524101 0.0542984 0.0536426 0.0544881 0.0524239 0.0543575 0.0523262 0.0537472 0.0519438 0.054294 0.0544226 0.0519909 0.0537205 0.0543605 0.0545395 0.0521066 0.0538398 0.0546127 0.0520286 0.0538477 0.0543495 0.0544806 0.0518557 0.0537296 0.054268 0.0519182 0.0545279 0.0538026 0.0542559 0.054281 0.0519568 0.0538763 0.0543413 0.0541992 0.0537846 0.0542561 0.0521917 0.0542313 0.0541961 0.0537662 0.0521026 0.0542814 0.0538494 0.054296 0.0543618 0.0538386 0.0522751 0.0542385 0.0543622 0.0538714 0.0520112 0.0542225 0.0542922 0.0539436 0.0539002 0.0541205 0.0521243 0.0541555 0.054171 0.053996 0.0541367 0.0521887 0.0541331 0.054043 0.054167 0.0525138 0.0539675 0.0540573 0.0542235 0.0527647 0.0539322 0.0541884 0.0541396 0.0526437 0.0540155 0.0542333 0.0540709 0.0524885 0.0539997 0.0541124 0.0541249 0.0525696 0.0540676 0.0540706 0.0544054 0.0526237 0.0543307 0.0538701 0.0542418 0.0528452 0.0543515 0.0539403 0.0542025 0.0527284 0.053964 0.054444 0.0539974 0.0541514 0.0528756 0.0544606 0.0539142 0.0543957 0.0526507 0.0541884 0.0539341 0.0542685 0.0540997 0.0527697 0.0542728 0.0540557 0.0540568 0.0540263 0.0528476 0.0542026 0.0543505 0.0523783 0.0540923 0.0541733 0.0525077 0.0542324 0.0540175 0.0540722 0.0525358 0.054105 0.054259 0.0522603 0.05407 0.0541569 0.0543058 0.0524257 0.0540074 0.0540998 0.0546995 0.0541099 0.0523775 0.0541572 0.0546953 0.0526805 0.0539786 0.0546584 0.0542149 0.0527157 0.054758 0.0541265 0.0536316 0.0540351 0.0525535 0.0547463 0.0537304 0.0540107 0.0547304 0.0536972 0.0524784 0.0546529 0.0539661 0.0545951 0.0535946 0.0539271 0.0526534 0.0536954 0.0545792 0.0539877 0.0533486 0.0546854 0.053774 0.0539093 0.0546362 0.0538111 0.0534339 0.0546206 0.0539344 0.0538847 0.0535129 0.0548053 0.0538761 0.0539455 0.0548273 0.0539146 0.0538125 0.0532451 0.0547649 0.0538869 0.0538285 0.0547214 0.0539472 0.0533315 0.0537756 0.053772 0.0533998 0.0548577 0.0541219 0.053691 0.0534166 0.0548057 0.0540714 0.053846 0.0535345 0.054763 0.0537811 0.0540401 0.0548204 0.0536262 0.0540192 0.0537007 0.0547105 0.0539248 0.0536605 0.0546758 0.0537715 0.0539685 0.0546776 0.0534777 0.0538454 0.0540465 0.0546495 0.0535524 0.0538536 0.0539779 0.054712 0.0536017 0.0539385 0.053925 0.0547551 0.0539974 0.053189 0.0538825 0.0546597 0.0538517 0.0532214 0.0539719 0.0544938 0.0539427 0.0539162 0.0532888 0.054517 0.053819 0.0539135 0.0531068 0.0544221 0.0538739 0.0539933 0.0545893 0.0531614 0.0537683 0.0545634 0.0532993 0.0540613 0.054454 0.053387 0.0540077 0.0537174 0.0544922 0.0534691 0.0540713 0.053873 0.054524 0.0540723 0.0535126 0.0537835 0.0543742 0.0540603 0.0538098 0.0532557 0.0543068 0.054006 0.05336 0.0536757 0.0544436 0.0541264 0.0537642 0.0534147 0.0544007 0.0541185 0.0537284 0.0537664 0.0543606 0.0541804 0.053903 0.0546143 0.0538562 0.0542502 0.054535 0.0538277 0.0538192 0.0541284 0.0545551 0.0536224 0.0537702 0.0541968 0.0545949 0.0537158 0.0538154 0.0542614 0.0545674 0.0537931 0.0538099 0.0541916 0.0544758 0.053696 0.0540568 0.0536941 0.0544113 0.0541234 0.0537408 0.0538921 0.0544868 0.0537225 0.0541266 0.0545011 0.0541896 0.0536034 0.0540065 0.0544262 0.0541943 0.0536526 0.0539481 0.0537147 0.0543235 0.0544253 0.0536832 0.0542594 0.0538393 0.0535841 0.0550232 0.0542598 0.053674 0.0538882 0.0550369 0.0536352 0.0543202 0.0535764 0.0550447 0.0536621 0.0535838 0.054248 0.0550758 0.0534888 0.0535346 0.0543283 0.0535764 0.0536163 0.0550587 0.0543878 0.0536642 0.055049 0.0535276 0.0529148 0.0550617 0.0537511 0.0528008 0.0535206 0.0550224 0.0537743 0.053045 0.0550199 0.0534823 0.0538648 0.0529795 0.0534461 0.0550011 0.0537023 0.0529037 0.0550485 0.0539015 0.0529461 0.0550296 0.0528483 0.0537293 0.0550987 0.0537984 0.0530174 0.0550875 0.0537835 0.0538974 0.0531346 0.0551207 0.0530315 0.0538221 0.0551096 0.0532258 0.0530821 0.0551293 0.0532159 0.053157 0.0536996 0.0550705 0.0531018 0.0529756 0.0550772 0.0537032 0.0531585 0.0529496 0.0550525 0.0538299 0.0532895 0.0530485 0.0551121 0.053802 0.0532477 0.0550917 0.0532597 0.0528722 0.0550951 0.0538401 0.0533104 0.0529576 0.0550726 0.0537407 0.0531052 0.0531908 0.0549938 0.0537623 0.0529942 0.0531432 0.0549618 0.0529748 0.0536442 0.0532988 0.0528829 0.0550147 0.0536681 0.0528509 0.0550023 0.0530385 0.0536419 0.0549979 0.0527799 0.0530714 0.0535616 0.054936 0.0528711 0.0531958 0.0549207 0.053489 0.0529492 0.0532731 0.0536637 0.053027 0.0532247 0.0549023 0.0535796 0.0531374 0.0549499 0.0526615 0.053671 0.0549739 0.0533159 0.0527405 0.0535414 0.0549276 0.053302 0.0550475 0.0535108 0.0528716 0.0550251 0.0533673 0.0530542 0.0534542 0.0550253 0.0530019 0.0534117 0.0537987 0.0550759 0.053154 0.0550528 0.0533905 0.0538146 0.0531451 0.0550562 0.0534935 0.0537438 0.0549907 0.0534543 0.0529381 0.0549662 0.053714 0.0530349 0.0535291 0.0550231 0.0537056 0.0533878 0.0535043 0.053799 0.0549757 0.053413 0.0549843 0.0537923 0.0534666 0.053689 0.0534771 0.053727 0.0536034 0.0551312 0.0532521 0.0536058 0.0535605 0.0533588 0.0551375 0.0536987 0.0536763 0.0551265 0.0535674 0.0536365 0.0536768 0.0551438 0.0536434 0.0533391 0.0535475 0.0551419 0.0535098 0.0536197 0.0533545 0.0536336 0.0534934 0.0551345 0.0535978 0.0535341 0.053427 0.0534262 0.0551108 0.0535158 0.053421 0.0534207 0.0550935 0.0532466 0.0534985 0.05341 0.0551098 0.0533225 0.0535548 0.0551234 0.053482 0.0551309 0.0531196 0.0536005 0.0536459 0.0551202 0.0535095 0.0531762 0.0537229 0.0551491 0.0532153 0.0535569 0.0551493 0.0536553 0.053401 0.0534829 0.0551512 0.0535631 0.0534185 0.0534997 0.0537306 0.0533619 0.0551587 0.0533919 0.0537357 0.0551484 0.0529083 0.0534158 0.0532542 0.0551473 0.0530157 0.0551378 0.0533392 0.0529444 0.0532951 0.055111 0.053115 0.0533979 0.055124 0.0533399 0.0529527 0.0551307 0.0517741 0.0532778 0.0530212 0.0518222 0.0532156 0.0530778 0.0551214 0.0516939 0.0532931 0.0531517 0.0551241 0.0518223 0.0532184 0.0532617 0.0550934 0.0518812 0.0533269 0.0531588 0.0550705 0.0516132 0.0531852 0.0534205 0.0551025 0.0517439 0.0550578 0.0532489 0.0533774 0.0550808 0.0516864 0.0533366 0.0550379 0.0533489 0.0520164 0.0550074 0.0532329 0.0532251 0.0520967 0.0533158 0.0549849 0.0532504 0.0520671 0.0550411 0.0533592 0.0530973 0.0550153 0.0519698 0.0530444 0.053069 0.0550154 0.0518728 0.0529452 0.0518696 0.0549924 0.0529858 0.0531269 0.0550901 0.0519222 0.0550657 0.0529524 0.0515525 0.051466 0.0529517 0.0551009 0.0529297 0.0516116 0.0530623 0.055108 0.0529595 0.0516121 0.0531617 0.0550759 0.0513668 0.0531168 0.0531223 0.0550828 0.0514241 0.0530791 0.0550649 0.0532883 0.0514866 0.05318 0.0550485 0.0532118 0.0515392 0.0531285 0.0550191 0.0533929 0.0517189 0.0530221 0.0550437 0.053401 0.0518055 0.0530327 0.0532423 0.0518528 0.0529303 0.0550143 0.0533326 0.0516486 0.0533174 0.0548511 0.0516745 0.0533219 0.0533904 0.0549036 0.0517303 0.0532338 0.0534145 0.0522532 0.0548792 0.0531995 0.0535401 0.0533512 0.0522062 0.0547981 0.0535992 0.0548939 0.0523317 0.0534471 0.0532209 0.0548442 0.0521079 0.0534513 0.0532994 0.0548705 0.0521797 0.0535368 0.0531499 0.0547968 0.0536104 0.0522367 0.0532016 0.0547477 0.0532537 0.0536842 0.0546925 0.0523865 0.0531133 0.054758 0.0537498 0.0531231 0.0525424 0.0548129 0.0537195 0.0530927 0.0547732 0.0524732 0.0536849 0.0547287 0.0529133 0.0523146 0.0537891 0.0549173 0.0530098 0.0523394 0.0549138 0.0534816 0.0529303 0.0535598 0.0524801 0.0549415 0.0529912 0.0536093 0.0548638 0.0519599 0.0530878 0.0534508 0.0530147 0.0520543 0.0549402 0.0535225 0.0530087 0.0548965 0.0521167 0.0548211 0.0535934 0.0519634 0.0528954 0.0547816 0.0536348 0.0518725 0.0548478 0.0529599 0.0536885 0.0519931 0.0548193 0.0521989 0.0528329 0.0546684 0.0538143 0.0522966 0.0537479 0.0528908 0.0546508 0.052257 0.0546073 0.0536697 0.0536788 0.0520838 0.0546048 0.0536183 0.0520849 0.0546999 0.0537956 0.054656 0.0521772 0.0536248 0.0545527 0.0513028 0.0538345 0.0535163 0.0545463 0.0512828 0.0535804 0.0537505 0.0513964 0.0544849 0.0536612 0.053816 0.054597 0.051163 0.0536154 0.0511634 0.0545309 0.0537572 0.0535698 0.0513277 0.0538617 0.0544774 0.0513217 0.0535481 0.0547392 0.0537505 0.0534544 0.0515491 0.054642 0.0538215 0.0546906 0.0535152 0.0514903 0.0538842 0.0547396 0.0535185 0.0539149 0.0515888 0.0547757 0.0534681 0.054006 0.0514656 0.0546874 0.0539393 0.053428 0.05142 0.0546357 0.0540898 0.0534268 0.0514631 0.0545754 0.0533497 0.0510538 0.0540508 0.0545082 0.0533265 0.0511075 0.0545805 0.0540463 0.0534066 0.0539598 0.0546372 0.0512243 0.0534483 0.0541366 0.0545302 0.0509432 0.0533531 0.0537899 0.0509951 0.0545868 0.053321 0.0539408 0.0511006 0.0549533 0.053261 0.0538657 0.0549063 0.0511271 0.0532466 0.053867 0.0549636 0.051298 0.0531946 0.0549234 0.0538093 0.0548766 0.0511969 0.0534806 0.0539337 0.0548641 0.0514179 0.0539979 0.0534338 0.0548159 0.0540531 0.0533663 0.0548909 0.0511303 0.0541006 0.0548438 0.0533892 0.0512707 0.0540071 0.0549908 0.0533223 0.054149 0.0549364 0.0512896 0.0534026 0.0549643 0.054099 0.0517582 0.053375 0.0517636 0.0549879 0.0541874 0.0518775 0.0549417 0.0533037 0.0541267 0.0516325 0.0532337 0.0541916 0.0549666 0.051586 0.0549132 0.0542353 0.0531826 0.0518275 0.0548695 0.0541669 0.0532923 0.051719 0.054839 0.0542212 0.0532632 0.0519479 0.0542951 0.0549077 0.0532623 0.0519493 0.0543059 0.0548224 0.0531588 0.0520822 0.0531642 0.0548604 0.0543666 0.0547714 0.0517973 0.0531287 0.054726 0.0544295 0.05305 0.0519415 0.0546771 0.0543553 0.0531569 0.0515684 0.0547172 0.0544207 0.0531061 0.0516542 0.0548032 0.054205 0.053055 0.05469 0.0514259 0.0542904 0.0547482 0.0530393 0.0542902 0.051516 0.0542294 0.05462 0.0514743 0.0546524 0.0529121 0.0542729 0.0543354 0.0516751 0.0532071 0.05455 0.0543579 0.0546228 0.0517868 0.0533106 0.0543539 0.0545822 0.0532317 0.0544172 0.0518706 0.0545574 0.0531169 0.0547784 0.0544776 0.051543 0.0531478 0.0547626 0.0544068 0.0516602 0.0531186 0.0547224 0.0544748 0.0531438 0.0517672 0.0547996 0.0544539 0.0547088 0.0530711 0.0516405 0.0538198 0.0530388 0.0547332 0.0517315 0.053884 0.0530256 0.0546538 0.0538484 0.0529434 0.0545892 0.052603 0.0539672 0.0529608 0.0539293 0.054592 0.0527388 0.0530317 0.0538661 0.054655 0.0526444 0.0529044 0.0540081 0.052977 0.0525493 0.0546765 0.0540326 0.0528254 0.0525133 0.0539456 0.0546242 0.0525905 0.054113 0.0527693 0.0540607 0.0528141 0.054043 0.0528564 0.0539805 0.0529071 0.0539336 0.0529073 0.0541865 0.052838 0.0539193 0.054081 0.0529988 0.0540123 0.0528047 0.0541598 0.0527303 0.0540834 0.0527476 0.0538889 0.0526879 0.0540192 0.0526944 0.0539751 0.0538513 0.0528301 0.0538721 0.052712 0.0528115 0.053909 0.0537915 0.0530246 0.0523912 0.0539612 0.0539888 0.0529839 0.0538887 0.0524017 0.05406 0.0529295 0.0538128 0.0524713 0.0541375 0.0528778 0.0538037 0.0541126 0.0522083 0.0529002 0.0541894 0.0541616 0.0523536 0.052948 0.0541112 0.0542172 0.0525728 0.0528223 0.0526517 0.0540485 0.0540815 0.0529261 0.052706 0.0541345 0.0541537 0.0528019 0.0541819 0.0524295 0.0528302 0.0542149 0.0540846 0.052544 0.0527173 0.054258 0.0525211 0.0541689 0.0527686 0.054322 0.0539835 0.0530856 0.0527879 0.0542219 0.0540147 0.0543399 0.0531211 0.0526424 0.0538487 0.0542874 0.053919 0.0529388 0.0526791 0.0543793 0.0540411 0.0529449 0.0526057 0.0544325 0.0539855 0.0530062 0.0526935 0.053954 0.0545018 0.0530287 0.0527143 0.053717 0.054368 0.0537346 0.0532082 0.0525886 0.0544182 0.0536104 0.0531691 0.0536686 0.0525801 0.0545195 0.0537471 0.0544574 0.0530485 0.0536546 0.0524627 0.0542653 0.0535451 0.0530801 0.0535793 0.0543083 0.0534763 0.054011 0.0543831 0.0531233 0.0534109 0.0543344 0.0539101 0.0528113 0.0534032 0.0527827 0.0536023 0.0542783 0.0535305 0.0529006 0.0539023 0.0544013 0.053484 0.0528666 0.0544613 0.0539436 0.0534357 0.0526578 0.0545299 0.0538164 0.0538023 0.0527368 0.0544942 0.0536927 0.0528162 0.0538295 0.0538538 0.0544789 0.0528959 0.0538024 0.0538964 0.0529554 0.053715 0.0545301 0.0538042 0.0530009 0.0537258 0.0537447 0.0537376 0.0527922 0.0535625 0.0536275 0.0536472 0.0528894 0.0541016 0.0535066 0.0521264 0.053862 0.0541263 0.0536201 0.0522425 0.054043 0.0538029 0.053703 0.0541741 0.05228 0.0537552 0.0535607 0.0541877 0.0520602 0.0537254 0.054202 0.0542384 0.0520085 0.0536354 0.0541897 0.0541937 0.0536958 0.0521236 0.054252 0.0542436 0.0536623 0.0541122 0.0521432 0.0536423 0.0543131 0.0523846 0.0542676 0.0542672 0.0535585 0.05241 0.0543404 0.0543669 0.0535878 0.0524975 0.0543169 0.05421 0.0535557 0.0522037 0.0540573 0.0541568 0.0534899 0.0522606 0.0541307 0.0542317 0.0523392 0.0540164 0.0536839 0.0542529 0.0540866 0.0518843 0.054277 0.0541555 0.053565 0.052017 0.0540244 0.054226 0.0535832 0.052021 0.0542869 0.0543406 0.0535844 0.0542811 0.0518848 0.0535011 0.054368 0.0543574 0.0534751 0.0542395 0.0517783 0.054388 0.0543177 0.0534462 0.051889 0.0543728 0.0544121 0.0521362 0.0543113 0.0533364 0.0543703 0.0522797 0.0533887 0.0542588 0.0544417 0.052005 0.0533398 0.054447 0.0543251 0.0519819 0.0532513 0.0542978 0.0540959 0.0543873 0.0521353 0.0534343 0.0543513 0.0541831 0.053498 0.052071 0.0541189 0.0544326 0.0534014 0.0525939 0.0540407 0.0543866 0.0533474 0.0544597 0.0526849 0.0541994 0.0532563 0.0544283 0.0533424 0.0524278 0.0541355 0.0544923 0.0532898 0.0524369 0.0544311 0.0539351 0.0544351 0.053261 0.0525442 0.053955 0.0544959 0.0531846 0.0525161 0.0544918 0.0538821 0.0544847 0.0538441 0.0531494 0.0527764 0.054511 0.0539718 0.0531936 0.0545384 0.0526583 0.0539068 0.0538496 0.0530959 0.0545623 0.0528531 0.0537584 0.054477 0.0536758 0.0526195 0.0545478 0.0536723 0.0545222 0.0535268 0.0536214 0.0527112 0.0545 0.0536124 0.0525875 0.0535586 0.0545554 0.0537901 0.0523062 0.0534805 0.0537772 0.05455 0.0523983 0.0535965 0.0537041 0.0545688 0.0522969 0.0536721 0.0534279 0.0545978 0.0539903 0.0546024 0.0534875 0.0521883 0.0539432 0.054626 0.0533699 0.0538772 0.0521788 0.0546674 0.0539212 0.0534622 0.0524897 0.0534083 0.0546492 0.054011 0.0524521 0.0533169 0.0543208 0.0540603 0.0525536 0.0535104 0.0539542 0.0542543 0.0533457 0.0538218 0.0543963 0.0522436 0.0533876 0.0537484 0.0543213 0.0523329 0.0534153 0.0544039 0.0536935 0.0523411 0.0543354 0.0538372 0.0533458 0.0543869 0.0538909 0.0532461 0.0524458 0.0544585 0.0537695 0.0532971 0.054423 0.054048 0.0537666 0.05331 0.0544858 0.0533241 0.0532266 0.0541416 0.0545262 0.0532601 0.0532032 0.0545253 0.0532427 0.053955 0.0544518 0.0531878 0.0530939 0.054526 0.0533255 0.053977 0.0531073 0.0545556 0.0533326 0.0540687 0.0532582 0.0543927 0.0532465 0.0541572 0.0533799 0.0530837 0.0532309 0.0541853 0.0531163 0.0543883 0.0532567 0.0530037 0.0544615 0.0531554 0.0542717 0.0529566 0.05315 0.0531156 0.0541009 0.0544436 0.0531488 0.0531732 0.0545126 0.0542147 0.0531726 0.0530795 0.0544567 0.0541316 0.0531214 0.053048 0.0545147 0.0538821 0.0530285 0.0534092 0.0545714 0.0540047 0.0546065 0.0529657 0.0534045 0.0539173 0.0545976 0.053176 0.0534795 0.0538237 0.0530561 0.0546106 0.0539416 0.0533113 0.0530237 0.054566 0.0538401 0.053465 0.053015 0.0540385 0.0546479 0.0529215 0.0540519 0.0535388 0.0545924 0.0541414 0.054607 0.0533888 0.0529124 0.0546317 0.0538821 0.0533064 0.0530139 0.0546121 0.0539729 0.05324