# vtk DataFile Version 3.0
vtk output
ASCII
DATASET UNSTRUCTURED_GRID
POINTS 22702 float
0 0 0
1 0 0
1 1 0
0 1 0
0 0 0
0 0 0
1 0 0
1 1 0
0 1 0
0 0 0
0 0 0
1 0 0
1 1 0
0 1 0
0 0 0
0 0 0
1 0 0
1 1 0
0 1 0
0 0 0
0 0 0
1 0 0
1 1 0
0 1 0
0 0 0
0 0 0
1 0 0
1 1 0
0 1 0
0 0 0
0 0 0
1 0 0
1 1 0
0 1 0
0 0 0
0 0 0
1 0 0
1 1 0
0 1 0
0 0 0
0 0 0
1 0 0
1 1 0
0 1 0
0 0 0
0 0 0
1 0 0
1 1 0
0 1 0
0 0 0
0 0 0
1 0 0
1 1 0
0 1 0
0 0 0
0 0 0
1 0 0
1 1 0
0 1 0
0 0 0
0 0 0
1 0 0
1 1 0
0 1 0
0 0 0
0 0 0
1 0 0
1 1 0
0 1 0
0 0 0
0 0 0
1 0 0
1 1 0
0 1 0
0 0 0
0 0 0
1 0 0
1 1 0
0 1 0
0 0 0
0 0 0
1 0 0
1 1 0
0 1 0
0 0 0
0 0 0
1 0 0
1 1 0
0 1 0
0 0 0
0 0 0
1 0 0
1 1 0
0 1 0
0 0 0
0.94098 0 0
1 0 0
1 0.0724338 0
0.94098 0 0
0 0 0
1 0 0
1 1 0
0 1 0
0 0 0
0 0.813282 0
0.200877 1 0
0 1 0
0 0.813282 0
0 0 0
1 0 0
1 1 0
0 1 0
0 0 0
0 0 0
1 0 0
1 1 0
0 1 0
0 0 0
0 0 0
1 0 0
1 1 0
0 1 0
0 0 0
0 0 0
1 0 0
1 1 0
0 1 0
0 0 0
0 0 0
1 0 0
1 1 0
0 1 0
0 0 0
0 0.967529 0
0.0463986 1 0
0 1 0
0 0.967529 0
0 0 0
1 0 0
1 1 0
0 1 0
0 0 0
0 0 0
1 0 0
1 1 0
0 1 0
0 0 0
0 0 0
1 0 0
1 1 0
0 1 0
0 0 0
0 0 0
1 0 0
1 1 0
0 1 0
0 0 0
0 0 0
1 0 0
1 1 0
0 1 0
0 0 0
0 0 0
1 0 0
1 1 0
0 1 0
0 0 0
0 0.99656 0
0.00771886 1 0
0 1 0
0 0.99656 0
0 0 0
1 0 0
1 1 0
0 1 0
0 0 0
0 0 0
1 0 0
1 1 0
0 1 0
0 0 0
0 0 0
1 0 0
1 1 0
0 1 0
0 0 0
0 0 0
1 0 0
1 1 0
0 1 0
0 0 0
0 0.965261 0
0.0553423 1 0
0 1 0
0 0.965261 0
0 0.933713 0
0.102235 1 0
0 1 0
0 0.933713 0
0 0.813646 0
0.227365 1 0
0 1 0
0 0.813646 0
0.850119 0 0
1 0 0
1 0.0895166 0
0.850119 0 0
0 0.882212 0
0.149776 0.951875 0
0.246564 1 0
0 1 0
0 0.882212 0
0 0.959675 0
0.0859381 1 0
0 1 0
0 0.959675 0
0 0 0
0.0591517 0 0
0 0.0235105 0
0 0 0
0 0.913254 0
0.264811 1 0
0 1 0
0 0.913254 0
0.721923 0.0733206 0
0.75299 0 0
1 0 0
1 1 0
0.368998 1 0
0.721923 0.0733206 0
0 0.940511 0
0.120836 1 0
0 1 0
0 0.940511 0
0.979689 0 0
1 0 0
1 0.0117398 0
0.979689 0 0
0 0.92876 0
0.15734 1 0
0 1 0
0 0.92876 0
0 0.895318 0
0.149958 0.956487 0
0.249071 1 0
0 1 0
0 0.895318 0
0.452836 0 0
1 0 0
1 1 0
0.961861 1 0
0.639448 0.374585 0
0.452836 0 0
0.67106 0 0
1 0 0
1 0.189943 0
0.893887 0.132692 0
0.67106 0 0
0 0.947998 0
0.122254 1 0
0 1 0
0 0.947998 0
0 0 0
0.299119 0 0
0.0103316 0.170159 0
0 0.175866 0
0 0 0
0.898986 0 0
1 0 0
1 0.8206 0
0.715788 0.60364 0
0.898986 0 0
0 0.626413 0
0.579391 1 0
0 1 0
0 0.626413 0
0 0 0
0.0615678 0 0
0 0.0289463 0
0 0 0
0 0.373116 0
0.580833 0.838408 0
0.764014 1 0
0 1 0
0 0.373116 0
0.475442 0.35225 0
0.656399 0 0
1 0 0
1 0.80882 0
0.475442 0.35225 0
0.740898 0 0
1 0 0
1 0.18021 0
0.740898 0 0
0 0.744571 0
0.474319 1 0
0 1 0
0 0.744571 0
0.872551 0 0
1 0 0
1 1 0
0.366333 1 0
0.872551 0 0
0.923872 0 0
1 0 0
1 0.0263746 0
0.923872 0 0
0 0.763639 0
0.483201 1 0
0 1 0
0 0.763639 0
0 0.11498 0
0.945895 1 0
0 1 0
0 0.11498 0
0.226861 0 0
1 0 0
1 1 0
0.868995 1 0
0.817582 0.924762 0
0.569024 0.539525 0
0.226861 0 0
0.871951 0 0
1 0 0
1 0.0479477 0
0.871951 0 0
0.906588 0 0
1 0 0
1 1 0
0.583107 1 0
0.906588 0 0
0.408465 0 0
1 0 0
1 0.671088 0
0.408465 0 0
0.43436 0 0
1 0 0
1 0.29207 0
0.43436 0 0
0 0.917843 0
0.597601 0.688793 0
0.817932 0.609967 0
1 0.826891 0
1 1 0
0 1 0
0 0.917843 0
0 0 0
0.337122 0 0
0 0.177764 0
0 0 0
0.855044 0 0
1 0 0
1 0.250088 0
0.872935 0.0336182 0
0.855044 0 0
0 0.830191 0
0.279416 0.725612 0
0.902829 0.507213 0
1 0.475321 0
1 1 0
0 1 0
0 0.830191 0
0.614098 0 0
1 0 0
1 0.165413 0
0.614098 0 0
0.860814 0 0
1 0 0
1 0.257868 0
0.875308 0.029348 0
0.860814 0 0
0.718533 0 0
1 0 0
1 0.421831 0
0.718533 0 0
0 0.966094 0
0.323227 0.826835 0
1 0.553109 0
1 1 0
0 1 0
0 0.966094 0
0.255763 0 0
1 0 0
1 0.580349 0
0.255763 0 0
0 0.819609 0
0.279085 0.717086 0
0.895217 0.505106 0
1 0.471291 0
1 1 0
0 1 0
0 0.819609 0
0.74403 0 0
1 0 0
1 0.383143 0
0.74403 0 0
0 0.136153 0
0.931636 1 0
0 1 0
0 0.136153 0
0.750032 0 0
1 0 0
1 0.398406 0
0.750032 0 0
0.439916 0 0
1 0 0
1 0.310724 0
0.439916 0 0
0 0.757254 0
1 0.264503 0
1 1 0
0 1 0
0 0.757254 0
0.259539 0 0
1 0 0
1 0.610812 0
0.259539 0 0
0.156712 0 0
1 0 0
1 1 0
0.841705 1 0
0.424467 0.405975 0
0.381997 0.343173 0
0.156712 0 0
0 0.853947 0
0.264747 1 0
0 1 0
0 0.853947 0
0.493183 0 0
1 0 0
1 0.260546 0
0.493183 0 0
0.87952 0 0
1 0 0
1 1 0
0.348157 1 0
0.87952 0 0
0 0.667612 0
0.592606 1 0
0 1 0
0 0.667612 0
0.844741 0.0647258 0
0.682715 0 0
1 0 0
1 0.123387 0
0.844741 0.0647258 0
0.91135 0 0
1 0 0
1 1 0
0.566467 1 0
0.91135 0 0
0 0.826784 0
0.442712 1 0
0 1 0
0 0.826784 0
0.837027 0 0
1 0 0
1 1 0
0.211856 1 0
0.837027 0 0
0.633851 0 0
1 0 0
1 0.247401 0
0.843251 0.14733 0
0.633851 0 0
0 0.776079 0
0.0414386 0.799436 0
0.381545 1 0
0 1 0
0 0.776079 0
0.920712 0 0
1 0 0
1 1 0
0.542486 1 0
0.920712 0 0
0.647698 0 0
1 0 0
1 0.224638 0
0.862144 0.141869 0
0.647698 0 0
0 0.728211 0
0.0909629 0.781207 0
0.450662 1 0
0 1 0
0 0.728211 0
0.968606 0 0
1 0 0
1 1 0
0.584044 1 0
0.968606 0 0
0.607603 0 0
1 0 0
1 0.194125 0
0.607603 0 0
0.769836 0 0
1 0 0
1 0.367533 0
0.769836 0 0
0 0.709147 0
0.178314 0.850754 0
0.350769 1 0
0 1 0
0 0.709147 0
0.438112 0 0
1 0 0
1 0.35159 0
0.438112 0 0
0.183752 0.0446636 0
0.138931 0 0
1 0 0
1 0.827662 0
0.183752 0.0446636 0
0 0.666154 0
0.540033 1 0
0 1 0
0 0.666154 0
0.577365 0 0
1 0 0
1 0.225858 0
0.577365 0 0
0.902957 0 0
1 0 0
1 0.19913 0
0.902957 0 0
0 0.701114 0
0.505595 1 0
0 1 0
0 0.701114 0
1 0.0694734 0
1 1 0
0.652593 1 0
0.810481 0.560877 0
1 0.0694734 0
0 0.804853 0
0.455303 1 0
0 1 0
0 0.804853 0
0.398083 0 0
1 0 0
1 0.661034 0
0.398083 0 0
0 0.809053 0
0.472169 1 0
0 1 0
0 0.809053 0
0.787768 0 0
1 0 0
1 0.365724 0
0.787768 0 0
1 0.692447 0
1 1 0
0.358309 1 0
1 0.692447 0
0.213765 0.0196005 0
0.196004 0 0
1 0 0
1 0.85429 0
0.213765 0.0196005 0
0 0.915345 0
0.3193 0.788176 0
1 0.534105 0
1 1 0
0 1 0
0 0.915345 0
0.933979 0 0
1 0 0
1 0.0287937 0
0.933979 0 0
0 0.841412 0
0.503842 1 0
0 1 0
0 0.841412 0
0.823888 0 0
1 0 0
1 0.131688 0
0.823888 0 0
0 0.48585 0
0.0920704 0.546572 0
0.748422 1 0
0 1 0
0 0.48585 0
0.99266 0 0
1 0 0
1 0.0101879 0
0.99266 0 0
0 0.934032 0
0.177305 0.863276 0
0.800574 0.629085 0
1 0.81775 0
1 1 0
0 1 0
0 0.934032 0
0.716069 0 0
1 0 0
1 0.381643 0
0.716069 0 0
0 0 0
1 0 0
1 1 0
0 1 0
0 0 0
0 0 0
1 0 0
1 1 0
0 1 0
0 0 0
0.874963 0 0
1 0 0
1 0.0905381 0
0.874963 0 0
0 0 0
1 0 0
1 1 0
0 1 0
0 0 0
0.960173 0 0
1 0 0
1 0.0560027 0
0.960173 0 0
0 0 0
1 0 0
1 1 0
0 1 0
0 0 0
0 0 0
1 0 0
1 1 0
0 1 0
0 0 0
0 0 0
1 0 0
1 1 0
0 1 0
0 0 0
0 0 0
1 0 0
1 1 0
0 1 0
0 0 0
0 0 0
1 0 0
1 1 0
0 1 0
0 0 0
0 0 0
1 0 0
1 1 0
0 1 0
0 0 0
0 0 0
1 0 0
1 1 0
0 1 0
0 0 0
0.71306 0 0
1 0 0
1 0.255771 0
0.71306 0 0
0 0 0
1 0 0
1 1 0
0 1 0
0 0 0
0 0 0
1 0 0
1 1 0
0 1 0
0 0 0
0.988278 0 0
1 0 0
1 0.0175461 0
0.988278 0 0
0 0 0
1 0 0
1 1 0
0 1 0
0 0 0
0.761075 0 0
1 0 0
1 0.0745147 0
0.761075 0 0
0 0 0
1 0 0
1 1 0
0 1 0
0 0 0
0 0 0
1 0 0
1 1 0
0 1 0
0 0 0
0 0 0
1 0 0
1 1 0
0 1 0
0 0 0
0 0 0
1 0 0
1 1 0
0 1 0
0 0 0
0.876426 0 0
1 0 0
1 0.0501124 0
0.876426 0 0
0 0 0
1 0 0
1 1 0
0 1 0
0 0 0
0 0 0
1 0 0
1 1 0
0 1 0
0 0 0
0 0 0
1 0 0
1 1 0
0 1 0
0 0 0
0 0 0
1 0 0
1 1 0
0 1 0
0 0 0
0 0 0
1 0 0
1 1 0
0 1 0
0 0 0
0.571715 0 0
1 0 0
1 0.318502 0
0.783103 0.164719 0
0.571715 0 0
0 0 0
1 0 0
1 1 0
0 1 0
0 0 0
0 0 0
1 0 0
1 1 0
0 1 0
0 0 0
0 0 0
1 0 0
1 1 0
0 1 0
0 0 0
0 0 0
1 0 0
1 1 0
0 1 0
0 0 0
0 0 0
1 0 0
1 1 0
0 1 0
0 0 0
0.770192 0 0
1 0 0
1 0.107991 0
0.770192 0 0
0 0 0
1 0 0
1 1 0
0 1 0
0 0 0
0 0 0
1 0 0
1 1 0
0 1 0
0 0 0
0 0 0
1 0 0
1 1 0
0 1 0
0 0 0
0.443718 0 0
1 0 0
1 0.345883 0
0.443718 0 0
0 0 0
1 0 0
1 1 0
0 1 0
0 0 0
0.795762 0.0821822 0
0.630969 0 0
1 0 0
1 0.178924 0
0.795762 0.0821822 0
0 0 0
1 0 0
1 1 0
0 1 0
0 0 0
0 0 0
1 0 0
1 1 0
0 1 0
0 0 0
0.551637 0 0
1 0 0
1 0.270191 0
0.551637 0 0
0 0 0
1 0 0
1 1 0
0 1 0
0 0 0
0 0 0
1 0 0
1 1 0
0 1 0
0 0 0
0 0 0
1 0 0
1 1 0
0 1 0
0 0 0
0 0 0
1 0 0
1 1 0
0 1 0
0 0 0
0.807851 0 0
1 0 0
1 0.0823407 0
0.950609 0.0623528 0
0.807851 0 0
0 0 0
1 0 0
1 1 0
0 1 0
0 0 0
0 0 0
1 0 0
1 1 0
0 1 0
0 0 0
0.72969 0 0
1 0 0
1 0.234563 0
0.72969 0 0
0 0 0
1 0 0
1 1 0
0 1 0
0 0 0
0 0 0
1 0 0
1 1 0
0 1 0
0 0 0
0 0 0
1 0 0
1 1 0
0 1 0
0 0 0
0.771499 0 0
1 0 0
1 0.135077 0
0.771499 0 0
0 0 0
1 0 0
1 1 0
0 1 0
0 0 0
0 0 0
1 0 0
1 1 0
0 1 0
0 0 0
0 0 0
1 0 0
1 1 0
0 1 0
0 0 0
0 0 0
1 0 0
1 1 0
0 1 0
0 0 0
0.661596 0 0
1 0 0
1 0.176238 0
0.661596 0 0
0 0 0
1 0 0
1 1 0
0 1 0
0 0 0
0.662308 0 0
1 0 0
1 0.162297 0
0.662308 0 0
0 0 0
1 0 0
1 1 0
0 1 0
0 0 0
0 0 0
1 0 0
1 1 0
0 1 0
0 0 0
0.692679 0 0
1 0 0
1 0.177845 0
0.692679 0 0
0 0 0
1 0 0
1 1 0
0 1 0
0 0 0
0 0 0
1 0 0
1 1 0
0 1 0
0 0 0
0.711872 0 0
1 0 0
1 0.155554 0
0.711872 0 0
0 0 0
1 0 0
1 1 0
0 1 0
0 0 0
0 0 0
1 0 0
1 1 0
0 1 0
0 0 0
0 0 0
1 0 0
1 1 0
0 1 0
0 0 0
0 0 0
1 0 0
1 1 0
0 1 0
0 0 0
0 0 0
0.832468 0 0
0 0.363179 0
0 0 0
0 0 0
1 0 0
1 1 0
0 1 0
0 0 0
0 0 0
1 0 0
1 1 0
0 1 0
0 0 0
0 0 0
1 0 0
1 1 0
0 1 0
0 0 0
0 0 0
1 0 0
1 1 0
0 1 0
0 0 0
0 0 0
1 0 0
1 1 0
0 1 0
0 0 0
0 0 0
1 0 0
1 1 0
0 1 0
0 0 0
0 0 0
1 0 0
1 1 0
0 1 0
0 0 0
0 0 0
1 0 0
1 1 0
0 1 0
0 0 0
0 0 0
1 0 0
1 1 0
0 1 0
0 0 0
0 0 0
1 0 0
1 1 0
0 1 0
0 0 0
0 0 0
1 0 0
1 1 0
0 1 0
0 0 0
0 0 0
1 0 0
1 1 0
0 1 0
0 0 0
0 0 0
1 0 0
1 1 0
0 1 0
0 0 0
0 0 0
1 0 0
1 1 0
0 1 0
0 0 0
0 0 0
0.965217 0 0
0 0.394645 0
0 0 0
0 0 0
1 0 0
1 1 0
0 1 0
0 0 0
0 0 0
1 0 0
1 1 0
0 1 0
0 0 0
0 0 0
1 0 0
1 1 0
0 1 0
0 0 0
0 0 0
1 0 0
1 1 0
0 1 0
0 0 0
0 0 0
1 0 0
1 1 0
0 1 0
0 0 0
0 0 0
1 0 0
1 1 0
0 1 0
0 0 0
0 0 0
1 0 0
1 1 0
0 1 0
0 0 0
0 0 0
1 0 0
1 1 0
0 1 0
0 0 0
0 0 0
1 0 0
1 0.0577155 0
0.727521 0.246969 0
0 0.715349 0
0 0 0
0 0 0
1 0 0
1 1 0
0 1 0
0 0 0
0 0 0
1 0 0
1 1 0
0 1 0
0 0 0
0 0 0
1 0 0
1 1 0
0 1 0
0 0 0
0 0 0
1 0 0
1 1 0
0 1 0
0 0 0
0 0 0
1 0 0
1 0.104615 0
0 0.766817 0
0 0 0
0 0 0
1 0 0
1 1 0
0 1 0
0 0 0
0 0 0
1 0 0
1 0.0904627 0
0.384861 0.306836 0
0 0.420214 0
0 0 0
0 0 0
1 0 0
1 1 0
0 1 0
0 0 0
0 0 0
1 0 0
1 1 0
0 1 0
0 0 0
0 0 0
1 0 0
1 1 0
0 1 0
0 0 0
0 0 0
1 0 0
1 1 0
0 1 0
0 0 0
0.264683 0 0
1 0 0
1 0.651081 0
0.264683 0 0
0 0 0
1 0 0
1 1 0
0 1 0
0 0 0
0 0 0
1 0 0
1 1 0
0 1 0
0 0 0
0 0 0
1 0 0
1 1 0
0 1 0
0 0 0
0 0 0
1 0 0
1 1 0
0 1 0
0 0 0
0 0 0
1 0 0
1 1 0
0 1 0
0 0 0
0 0 0
[...]
CELL_DATA 4524
FIELD FieldData 3
weight 1 4524 float
 1.17211 1.17806 1.17815 1.17208 1.18419 1.17212 1.178 1.18427 1.18441 1.17171 1.17799 1.17815 1.17803 1.17166 1.17209 1.17811 1.17809 1.17171 1.17169 0.784387 1.17174 0.846817 1.17205 1.17795 1.17832 1.17834 1.17824 0.840792 1.18446 1.17817 1.17799 1.1782 1.17817 1.18444 0.852941 1.17804 1.18446 1.18436 1.18422 0.865862 0.871662 0.865796 0.803001 0.890781 0.871712 0.80926 0.88433 0.922087 0.878117 0.790874 0.89678 0.896868 0.940848 0.853098 0.890577 0.815395 0.903001 0.915647 0.778352 0.921823 0.897083 0.834602 0.890493 0.91575 0.846897 0.909158 0.984515 0.965391 0.853313 0.903318 0.884338 0.890539 0.940686 0.828007 0.840384 1.00334 0.878357 0.847093 0.87794 0.965638 0.903333 1.02199 0.859204 0.965695 0.865815 0.890579 1.05324 0.909127 0.965851 0.8782 0.884339 0.921762 0.947089 0.871664 0.909522 0.909511 0.947096 0.865399 0.884205 0.915715 0.859549 0.915504 0.897001 0.877938 0.85299 0.878092 0.896845 0.890381 0.92834 0.890494 0.834236 0.909492 0.896891 0.896887 0.871695 0.902934 0.853281 0.928333 0.890859 1.0156 0.840522 0.927993 0.82208 0.953266 0.771962 1.02209 0.828358 1.19669 1.19664 0.828253 1.19071 0.778271 1.19062 1.18429 1.19068 1.19674 1.19668 1.19064 1.17797 0.86563 1.18452 1.18459 0.772017 1.17173 0.878225 1.19084 1.19705 1.19711 1.1969 0.846726 1.1846 1.17793 1.17203 1.19065 1.18416 0.897047 1.17833 1.1906 1.172 1.16585 1.16581 0.871752 1.16538 1.17196 1.16542 0.915548 1.16557 0.884185 1.1779 1.17203 0.903197 1.17163 1.17831 1.17813 1.17814 0.871703 1.18429 1.18423 0.859236 1.17813 1.18452 1.17207 0.878223 1.17803 1.17799 1.17179 1.19039 0.903002 1.19081 0.903274 1.19668 1.19694 0.897109 1.19665 1.19702 0.89053 1.1904 1.19665 1.19039 1.19046 0.922027 1.19069 1.19696 1.19712 1.19663 1.19693 1.1971 1.19706 1.18443 1.19702 1.19042 1.19071 1.19041 1.19053 1.18423 0.934269 1.18448 1.18462 1.18459 1.17811 1.19087 1.17803 1.17833 1.17176 0.959423 1.19049 1.18437 1.17816 1.18422 0.953003 1.18423 0.946922 1.18443 1.1782 1.19055 1.1844 0.915702 1.18439 1.19084 1.19065 1.19056 1.16552 1.15326 0.927912 1.15932 1.1717 1.15328 1.15931 0.909566 1.15951 1.15321 1.15288 1.15935 1.15924 0.940425 1.17206 1.16576 1.17805 1.15934 1.16541 1.16554 1.14664 1.15328 1.15918 1.16541 1.15946 1.15313 0.934149 1.14052 1.14681 1.15317 1.14674 1.1281 1.1343 1.12812 0.946915 1.14046 1.12211 1.13461 1.15309 0.96584 1.14671 1.14065 1.14668 1.14048 0.965436 1.13432 1.128 1.12808 1.14045 1.11543 1.18435 0.98428 1.16573 1.17832 1.17193 0.978308 1.1717 1.15322 1.14663 1.16571 0.990718 0.809364 1.17167 1.16545 0.971951 1.18427 1.17815 1.17834 0.802945 0.959325 1.19074 1.17817 1.17165 0.972063 1.17181 0.840491 1.17168 0.953365 1.16546 1.15947 0.965495 1.16583 0.797007 1.15955 1.15919 1.15297 1.14668 0.847001 1.15325 0.977884 1.14076 1.1344 1.14699 1.1406 1.12825 0.99047 1.1346 1.12791 1.12205 1.14712 1.15942 1.14668 1.15918 0.965748 1.15315 1.13458 1.12832 0.92201 1.13421 1.12799 1.11541 1.12212 0.928295 1.19707 1.19669 1.19708 0.934521 1.19686 1.19687 0.921658 1.19687 1.19071 1.1907 0.946691 1.19045 1.19666 1.18422 1.19701 1.19686 1.19678 1.19682 1.11587 0.940478 1.19676 1.19053 1.19042 1.09065 1.17166 0.940831 1.19075 1.18417 0.940854 1.19669 1.19081 1.15926 0.915547 1.19672 1.19687 0.909586 1.18456 1.18459 1.18425 1.15335 0.909501 1.18445 0.940532 1.15337 1.19667 1.14673 0.946983 1.13413 1.14706 0.928341 1.17208 1.1658 1.12186 1.14038 0.940613 1.17799 1.19052 1.19675 1.12821 0.971849 1.11569 1.08461 1.14707 1.16564 1.14083 0.840817 0.953255 1.09678 1.15932 0.947077 1.08438 1.19076 1.10944 0.79084 0.972058 1.05952 1.1471 1.07828 1.10933 0.959413 1.19684 0.827925 1.13453 1.12173 0.978139 1.19675 0.765469 1.12834 1.10936 1.12788 0.953163 1.11539 1.10295 1.15917 1.1407 1.12794 1.13423 1.11546 1.10293 0.821719 1.10918 1.09672 1.09666 1.09051 0.953258 1.10333 1.09061 0.959551 1.1095 1.09705 1.0843 1.10334 0.959413 1.09039 1.06562 1.07835 0.965581 1.19052 1.17814 1.14071 1.15941 1.16541 1.12827 1.15324 1.153 1.15292 0.784246 1.14683 1.14705 0.853101 1.13448 1.14046 0.809189 1.16559 1.13459 0.846962 1.12166 1.13444 1.14063 1.12186 1.1345 1.11551 0.834374 1.11573 1.11538 1.12817 1.14045 0.88431 1.12804 1.14074 1.12791 1.13455 0.834209 1.12193 1.14059 1.12174 1.11563 0.859364 0.878219 0.834416 0.928249 0.865503 0.872027 0.85948 0.859204 0.934404 0.884405 0.953043 0.890446 0.934244 0.871738 0.940601 0.965741 0.878292 0.846662 0.865429 0.896752 0.871918 0.915527 0.922055 0.859572 0.853226 0.884264 1.13428 0.902963 1.12204 0.859223 1.12819 1.10305 1.10327 1.10942 1.10933 0.927998 1.09062 1.11572 1.11545 1.1219 0.959208 1.10915 1.10333 0.853271 0.946872 1.12198 0.878276 1.15317 1.10944 0.85941 0.94072 1.12164 1.09693 0.865482 0.959576 0.952916 1.12185 0.965813 0.853088 1.09038 1.11587 1.09689 0.85931 1.09681 1.10916 1.0783 0.865575 0.903339 1.06555 0.784488 1.07209 0.872051 0.915603 1.08452 1.07176 1.0782 0.871636 1.08457 0.915869 1.07828 1.06567 1.07192 0.909342 0.88445 0.921716 0.934363 1.05321 0.903108 1.10295 0.790584 1.07188 0.8971 1.10301 1.06586 1.09062 0.890784 1.0842 1.07822 1.09682 0.92201 0.840392 0.928223 1.07194 0.915745 0.790616 0.921831 1.07797 1.09067 0.946926 1.06553 0.934402 0.928214 1.08428 1.05942 1.07179 1.08443 0.953079 1.05916 0.952929 1.06556 0.940618 1.06561 0.934332 1.05334 0.928153 0.946717 1.0529 0.940441 0.784516 1.08421 0.884461 0.840708 1.04039 0.884504 0.846755 0.87189 1.0346 0.865543 0.87833 1.04063 1.10945 0.909609 1.11563 0.834279 1.10305 0.902945 1.1157 0.89087 1.10334 0.896825 1.09059 1.07803 0.909263 1.09709 0.865434 1.07187 1.08417 0.921731 1.07211 0.859146 1.06547 1.10937 1.10957 1.09671 0.86566 0.878348 1.12179 0.871893 0.890439 1.10326 1.10289 0.884175 0.922028 1.08425 1.06568 1.06539 1.05933 0.871783 1.09043 1.07194 0.947074 1.06577 1.04686 1.04667 0.921643 1.05333 0.915604 1.04697 1.05933 1.0406 0.928144 0.915676 1.02201 0.93423 0.953007 0.940855 0.928188 0.959526 0.940474 0.896751 0.978001 0.915609 1.00922 0.902978 0.971878 0.890474 0.903007 0.996833 0.921825 0.94706 1.00323 0.909388 0.934162 1.00318 0.909292 1.04087 0.903058 0.927961 1.04058 1.05913 1.04691 0.990821 1.03461 0.996631 1.01549 1.04042 0.984157 1.02799 0.996991 0.978015 1.00337 0.977943 1.03454 1.03458 0.965721 1.00333 0.996728 0.990592 1.01573 1.10939 1.02187 1.1154 1.00962 1.10941 1.12188 1.10307 1.09702 1.09692 0.971786 1.02192 1.09674 1.07792 1.1029 1.09062 1.1219 0.997065 1.00937 1.11586 1.10916 1.10922 1.11579 1.00937 1.10915 1.02168 1.10328 1.10336 1.00337 1.09669 1.10318 1.09076 0.997065 0.997086 1.07821 1.02811 1.06553 1.02825 1.05302 1.01556 1.01577 1.02803 1.02827 1.07791 1.04075 1.01569 1.05937 1.03431 1.04079 1.05292 1.04059 1.05915 1.05957 1.02788 1.05326 1.06562 0.98416 1.04688 1.02792 1.00317 1.02824 1.04696 1.02198 1.0221 1.03441 1.00952 1.0407 0.984554 1.03456 0.99083 1.01578 1.0404 1.02192 1.03439 1.05309 0.978243 0.965765 1.04705 1.06564 0.984323 1.00304 1.08449 1.02798 1.09058 1.00962 1.05921 0.996746 1.03444 1.08427 1.07821 1.0904 1.00326 1.07172 1.05936 1.08448 1.05947 1.09676 0.977937 1.09056 1.02816 1.0967 1.10927 1.02211 0.965717 0.834619 1.1094 1.00925 1.10302 1.1093 0.984251 1.08442 1.0906 1.02195 0.990496 1.08423 1.08446 1.09694 0.997105 1.02791 1.09666 1.02803 1.12201 0.997017 1.10295 1.12184 1.01546 1.11567 1.03451 1.10332 1.02797 1.11553 1.04703 1.11579 1.0033 1.03413 0.947123 1.04073 0.996856 0.859139 1.0092 1.04076 0.934516 0.846703 1.02211 1.0032 1.01565 1.02795 0.972048 0.997049 1.04055 0.853221 0.990456 1.05302 1.05917 1.02196 0.946634 1.04685 1.02171 1.04668 1.02179 0.934613 1.05918 1.04059 1.06543 1.05931 0.940794 1.06557 1.02171 1.06572 0.928209 1.06545 1.07169 1.01568 0.853192 1.05325 1.04683 1.05956 1.00937 1.05954 0.878104 0.85962 1.07181 1.06539 1.0719 0.871858 1.02192 0.865451 1.07797 0.85914 1.09663 1.09047 1.02837 0.859433 1.10318 1.07796 1.07815 1.03461 0.897106 1.10336 0.884377 1.09684 1.0905 1.06565 1.0968 1.07823 0.878342 1.05321 0.859213 1.05939 1.07835 1.04067 0.884606 1.07185 0.84039 1.06568 1.05296 1.07835 0.871924 1.08416 1.02799 0.865755 0.97175 1.04708 1.05337 1.06564 1.07163 0.87818 1.05326 1.07209 0.940873 1.07164 1.09061 1.03449 0.865678 1.08447 0.971928 1.06587 0.872058 1.08418 1.06576 0.965671 0.884398 1.08446 1.10949 0.878368 1.09696 1.10294 0.959149 1.11541 1.09054 0.884138 1.1031 1.09044 0.953131 1.07808 1.1155 1.05949 0.890874 1.11566 0.890624 1.06581 1.08444 1.08435 0.902928 0.902914 1.09701 1.08415 1.09685 1.07796 0.871798 1.07809 0.915786 1.09066 0.971909 1.1032 0.909432 0.878318 0.884237 0.884552 1.10916 0.896972 0.959197 0.890538 0.821937 0.965746 1.10947 0.897078 0.834325 1.10922 0.99057 1.10958 1.09704 0.890835 1.10306 0.978254 0.903218 0.972118 0.890852 0.803338 0.959159 0.896899 0.953158 0.928293 0.90945 0.965743 0.921653 0.790415 0.984194 0.902904 0.934562 0.971828 0.915539 0.828353 0.972114 0.984416 0.853178 1.01538 0.822089 0.990563 0.865551 1.0095 1.00325 0.871628 0.853242 1.01566 0.890862 0.878288 0.990459 0.865709 1.00303 0.903024 0.809314 0.978299 0.896891 0.965849 0.878211 1.01576 0.828054 0.909209 0.996989 0.853031 0.884263 0.946851 0.815491 0.947062 0.872054 0.859579 0.940721 0.840382 0.778281 0.959558 0.85919 0.865566 0.965541 0.890772 0.865602 0.953102 0.909581 0.884407 0.947098 0.921941 0.903024 0.784348 0.928339 0.896801 0.915845 0.915722 0.9158 0.89679 0.90927 0.927995 0.934245 0.940694 0.934601 0.928089 0.953341 0.934459 0.909232 0.922072 0.965558 0.971753 0.909304 0.959413 0.940849 0.965494 0.915823 0.953101 0.959501 0.915481 0.996785 0.996857 0.978144 0.98432 0.921759 0.89064 0.934133 0.977896 0.959596 0.934318 0.94665 0.927894 1.00927 0.971842 0.921996 0.91566 0.890504 0.953183 0.978246 0.859344 0.896831 0.940412 0.965627 0.946667 0.89081 0.927918 0.909349 0.947092 0.928339 0.921935 0.859586 0.934213 0.959135 0.97183 0.903046 0.872017 0.978321 0.984405 0.959167 0.971765 0.965434 0.940781 0.953298 0.921706 0.984352 0.953341 1.02824 0.940789 0.971947 1.00306 1.02809 0.946886 0.928327 1.02163 0.971664 1.01567 0.940405 1.04074 1.04682 0.934468 0.959315 1.04709 0.959142 0.940684 0.897111 1.03432 0.946768 0.921932 1.00924 0.877998 1.00312 0.977954 0.959615 0.965789 0.871642 1.00934 0.965721 1.03416 0.790486 1.03428 0.978223 0.822024 1.00336 1.02822 0.784218 1.05303 0.984156 1.05932 0.834403 1.04682 1.07796 1.07164 0.82825 1.06567 1.05926 1.05313 1.04075 0.877929 1.03452 1.05915 1.04701 0.915407 1.05336 0.871671 0.865607 0.990676 0.984294 0.940638 0.996814 0.903252 1.00955 0.797041 0.990598 1.01587 0.846747 0.934524 1.00953 0.978055 0.815422 1.00328 0.959508 0.984276 0.990477 0.884484 0.984602 0.890399 0.871926 0.990809 0.928219 0.978038 0.928323 0.865498 1.00336 0.922036 0.915704 0.98421 0.878041 1.11553 0.940479 1.10934 0.996739 0.971925 1.10919 1.01555 1.10303 1.09695 0.946968 1.09664 1.02169 0.959477 1.04038 0.978138 1.08434 1.02163 1.00303 1.08439 1.09074 1.04076 1.03416 1.0717 1.01561 1.05915 1.07163 1.00943 1.0967 1.04081 1.09066 1.09676 1.00292 1.02173 1.09668 1.08439 1.00932 1.04704 1.07197 1.00308 1.0406 1.0094 1.05306 1.08424 0.834342 1.07197 1.09086 1.07185 1.09039 1.07797 0.865446 1.05333 0.877927 0.996707 1.07825 1.05324 0.877936 1.07807 1.03439 1.07199 0.859512 1.03449 1.07199 0.853209 1.04676 1.05301 1.05914 1.04672 1.05956 0.877997 1.05298 1.05317 0.865707 1.02207 1.04698 1.05332 1.05322 0.85916 1.06542 0.98446 0.884159 0.890737 0.996692 1.08433 1.09073 0.871942 0.98433 1.09065 1.0221 0.859382 1.04038 0.878337 1.08418 1.0971 0.865757 0.971844 1.07837 1.09055 0.88436 1.09052 1.06582 1.10303 1.08423 1.08434 1.09692 0.890564 1.10294 1.04706 0.884257 1.07195 1.04667 0.890599 1.06542 1.07182 1.05306 0.884549 1.07209 1.02194 0.890835 1.01574 1.07795 0.896779 1.03432 1.07189 0.909518 1.01555 0.896674 1.07812 1.00957 0.871792 1.08413 1.0907 1.09055 0.903129 1.0783 1.07813 1.09705 0.896841 1.07806 0.99057 0.878109 1.00935 0.903123 1.05953 1.02807 0.909549 1.07208 0.909332 1.02818 1.0596 0.896688 0.915476 0.990819 1.05333 0.915583 0.996858 1.0593 0.921933 0.928098 1.00333 1.06581 0.890833 1.02209 1.05308 0.90314 1.04077 1.0468 0.884464 1.03428 1.05947 0.87829 1.02212 0.902882 0.853202 1.03454 0.909434 1.06585 0.865789 0.896861 1.01559 1.0468 0.859373 0.903197 1.02173 0.971647 0.909563 1.01551 0.897082 1.01585 1.04684 0.915735 1.05305 1.02205 0.9281 1.04665 0.92167 0.984487 1.0408 0.884294 0.915813 1.04071 0.89085 0.921631 1.00303 1.02826 0.871788 0.921715 0.984429 1.05934 0.896839 0.927918 1.04664 1.04062 0.92791 1.0405 0.902942 1.02208 0.934477 0.878089 1.04068 1.00947 0.865565 0.946754 1.00932 0.859343 1.00933 0.934564 1.02826 0.934183 0.871739 0.990813 1.04062 0.865828 0.940574 1.06565 0.853306 0.94074 1.01586 1.06571 0.946712 1.04671 1.05961 0.953208 1.04059 1.04699 0.996645 1.06571 1.00333 1.07822 1.05917 1.0655 1.03438 0.822027 1.04055 1.05946 0.828321 1.03452 1.05962 1.02809 1.0845 1.02789 1.05325 1.04054 1.0033 1.07816 0.82801 1.03423 1.04704 1.00924 0.815417 1.04085 0.978203 0.859255 0.840485 1.05304 0.990431 0.847045 0.990828 1.01581 1.00331 0.871718 1.03456 0.86569 1.01539 0.884524 1.05916 0.87163 0.877958 1.05337 1.05309 0.853002 0.871746 1.04084 0.859459 1.04682 1.13447 1.12805 0.877946 1.13417 1.12816 1.12202 1.14687 1.15293 1.14706 0.88417 1.14076 1.14673 1.14708 1.13413 0.89039 0.990554 1.12799 1.14062 1.12164 1.12811 0.896657 0.972014 1.13449 0.99066 1.14069 1.14072 1.14084 0.959528 1.13452 1.13432 1.14706 0.946719 1.15316 0.834484 1.15929 0.921693 1.17163 1.15305 0.821744 1.15938 0.896655 1.1594 1.15921 0.9344 1.16564 0.88454 1.17792 1.15319 1.16549 0.865533 1.14699 1.1529 1.15931 0.928048 1.15296 1.15953 1.15921 1.15947 0.890817 0.79692 1.1654 1.17184 1.16577 0.871629 1.17178 1.12191 1.12796 1.12173 1.11554 0.815746 1.01574 1.12168 1.14691 1.12834 1.147 1.13449 1.00925 0.834414 1.14039 0.940692 1.1471 1.12806 1.1346 0.846993 1.14061 0.990771 1.10952 1.12817 1.14086 1.14695 1.15313 0.978354 0.865588 1.13457 1.14056 1.14086 0.965511 1.15299 1.15288 0.87835 0.915613 1.16546 0.903169 1.15945 0.928132 1.16547 1.16544 0.915591 1.17184 0.909599 1.17194 1.172 0.88439 1.17182 0.878123 1.17178 1.15293 1.16578 0.946741 1.14697 1.15942 0.872083 1.15929 1.17164 0.86572 1.17813 1.15321 1.17797 1.1718 1.17837 0.871678 0.840795 1.16541 1.17814 1.1844 1.19038 1.18419 1.19086 0.840512 1.1844 1.19071 0.853033 1.18417 1.19085 1.17212 1.17802 1.18416 0.865786 1.18428 0.809148 1.17803 1.17823 1.19085 0.884577 1.1842 1.19064 1.19044 0.89698 1.19054 0.859605 1.18454 1.17811 1.18441 0.89671 1.18435 1.19064 0.890423 1.18462 1.18413 1.19079 0.890531 1.18439 1.18425 1.19086 1.17819 0.909618 1.18428 0.928173 1.19701 0.915642 1.18428 1.19676 0.934333 1.1842 1.19081 1.18454 1.19058 1.19064 0.93432 1.18427 1.19041 1.18454 0.903024 1.17811 1.18454 0.909355 1.17804 1.17803 1.17196 1.18453 1.18425 1.1908 1.1779 1.1906 1.17805 1.19075 0.902969 1.18436 1.1779 1.16553 0.922004 1.18418 0.978118 1.19069 1.1904 0.91551 0.953117 1.19697 1.18459 1.18414 0.94681 1.19066 0.934574 1.19085 1.19693 1.19042 0.940833 1.19665 0.984175 1.19057 1.19047 0.921734 1.19056 0.972051 1.19711 1.1908 0.953245 1.19687 0.953246 0.884598 0.946693 0.878286 1.19062 1.19697 0.865687 1.19672 1.19671 1.19692 0.896838 0.953137 1.19684 1.19686 1.19673 0.90953 0.959242 1.19063 1.19687 1.19697 0.959151 1.19677 0.965705 1.19702 0.934306 1.19062 1.11561 0.971809 0.97169 1.12195 0.946675 0.95945 1.1217 1.10942 1.10296 0.928301 1.11584 0.95298 1.11578 0.921757 1.12801 1.13419 0.959498 0.903081 0.903353 1.12184 0.959323 0.890746 0.971991 1.13454 0.922109 1.10311 1.09707 1.09055 0.884592 0.96539 1.09663 1.10952 0.859308 1.10944 1.12827 1.11569 0.978287 1.11574 1.12164 1.13457 0.915409 1.16567 1.15952 0.909297 1.14691 1.15337 1.15914 1.14691 1.1655 1.16543 1.15315 0.927951 1.12207 1.1782 1.12812 1.12832 1.122 0.940784 1.10961 1.14067 1.10957 1.15323 1.13456 0.93449 1.15938 1.13413 1.12788 1.09671 1.14663 0.928107 1.06546 1.09053 0.928238 1.07174 0.884148 0.890406 1.07207 0.921676 1.07819 1.10309 1.09709 1.10295 1.08419 1.09054 1.0843 0.946756 1.09693 0.940687 1.05932 0.934166 1.06542 0.953253 1.10939 1.08448 1.08422 1.04046 1.07212 1.06544 1.07164 0.965554 1.00948 1.03446 1.07823 1.03419 0.946668 1.097 1.05962 1.09083 1.07811 1.07834 0.952876 1.01572 1.08447 1.07175 1.05931 1.07183 1.05335 0.971808 1.04055 1.07163 1.05953 1.00926 1.07809 1.02206 1.02794 0.977988 1.04689 1.03458 1.03446 1.06567 1.06578 1.02827 0.98433 1.09705 1.0845 1.12208 1.0656 1.09057 0.971648 1.10304 1.04709 1.10319 1.11573 1.07801 1.10956 1.07798 0.978003 1.14078 1.07168 1.10936 1.09685 1.05933 1.05914 1.11551 0.959476 1.10955 1.07796 1.05944 1.09054 1.0844 1.06561 0.990742 1.03431 1.00922 1.07205 1.07197 1.04676 1.04041 0.984513 1.06559 1.07175 1.08434 1.02207 0.984486 1.09696 1.05334 1.0907 1.05335 0.896837 1.09053 1.07166 1.04079 1.07817 1.05324 0.934443 1.1845 1.19046 1.17202 0.928079 1.04692 1.16555 0.921689 1.1908 1.0467 1.1843 1.02837 0.921784 1.00934 1.08428 0.947033 1.19066 1.02802 1.19664 1.07209 1.17817 0.953268 1.18454 0.990454 1.01572 0.940527 1.19687 1.12183 1.14686 1.00299 0.946916 1.17163 1.13444 1.14077 1.14058 1.15294 1.19705 1.19045 1.1719 1.12837 1.15931 1.19684 1.19667 1.19044 1.19705 1.18438 1.19666 1.19707 1.19686 1.19696 1.19706 1.19674 1.1908 1.19667 1.19043 1.18414 1.17185 1.15316 1.09676 1.19678 1.19707 1.19686 1.07205 1.19683 1.12171 1.11549 1.11546 1.11545 1.14064 0.897015 1.147 1.13445 1.14087 1.1219 0.903178 1.16573 1.13459 1.12825 0.884157 1.10314 1.11543 0.915425 1.08455 0.940453 1.05914 0.909326 1.09697 1.00959 1.10322 1.09702 1.09042 0.890418 0.946809 1.07797 1.103 0.971752 1.07818 1.1968 0.953267 1.12807 1.1342 1.17791 1.00295 1.10337 0.934189 1.19705 1.19692 1.10929 1.19702 1.19708 0.953261 1.14663 0.996958 0.884384 1.10317 1.10929 1.05334 1.09086 0.978291 1.06587 0.877934 1.12821 1.02196 1.0783 0.940632 1.19708 1.07195 0.871633 0.959522 1.09055 1.06585 1.08438 0.896685 1.00316 1.0592 0.984279 0.890498 0.984515 0.959402 1.0343 0.87789 0.915645 0.934458 0.972003 0.927877 0.902954 0.990473 0.947101 0.940846 0.97815 0.965792 1.00307 1.00297 0.865725 0.990472 0.971646 0.959523 0.990634 0.921664 0.940484 0.871727 0.934301 0.978111 0.89682 0.953209 0.965441 0.890768 0.965609 0.884563 1.01552 0.977883 0.928351 0.99681 0.959536 0.909518 0.990727 0.965449 1.01568 0.965446 0.984354 0.971824 0.896836 0.971696 1.00942 0.865861 0.978147 0.996771 0.884198 1.0093 0.840448 0.984536 0.959215 0.934231 0.990438 0.871712 1.02185 0.909521 0.984263 0.984447 0.996922 1.00958 0.953245 0.996827 0.878234 1.02183 0.921916 0.984197 1.01566 0.965439 0.984468 1.00312 0.978209 0.96584 0.996673 0.990577 0.952994 0.996765 0.903124 0.971871 1.0031 0.959197 0.959593 1.00324 0.972088 0.921928 1.0094 0.990642 0.896651 0.946719 0.903261 0.953346 0.88445 0.877918 0.978057 1.05328 0.890467 1.05958 0.872122 1.0533 0.897063 0.947003 0.853133 1.02791 0.965434 0.965453 0.884461 1.04706 0.95931 0.952979 0.859158 1.04044 0.846921 0.934496 0.965838 0.853124 1.0406 0.940741 0.952886 1.05301 0.971846 1.04688 0.978282 1.04693 0.978124 1.03424 0.971956 1.03449 0.990755 1.04046 0.840737 0.984324 0.996757 1.01538 1.0029 1.02791 0.959299 1.00952 1.00334 1.02184 1.01559 1.01573 1.02821 0.984465 1.01566 0.990794 1.00926 0.953113 0.996965 1.01577 0.940405 1.02172 0.997 0.990607 1.04046 1.01541 0.965682 1.05915 1.01583 0.947117 1.022 1.04687 1.02831 1.02798 1.00959 1.02193 0.846641 0.959127 1.02793 1.03433 0.934189 1.03448 0.909369 1.02794 0.90299 1.02834 0.890843 1.03413 0.96582 1.02169 1.00957 0.934176 1.02834 1.02163 0.940492 1.02802 1.0344 1.01558 0.928262 1.01586 0.934402 1.02207 1.02798 0.921694 1.0157 0.928302 1.00917 0.915423 1.00922 0.996889 1.01558 0.903223 1.00333 1.04067 0.915764 0.996728 1.04061 0.978049 0.946984 1.02212 1.05302 0.915381 0.971935 1.02203 1.02195 1.0096 1.04672 0.99665 1.04677 0.984457 1.04076 0.996962 1.00335 0.896649 1.04682 0.99074 1.05327 0.990541 0.984167 1.0531 0.877877 0.984541 1.05327 0.878013 1.03415 1.06544 0.909268 0.952974 1.06563 1.00326 1.07183 0.909274 0.928101 1.