# vtk DataFile Version 3.0
vtk output
ASCII
DATASET UNSTRUCTURED_GRID
POINTS 44485 float
0 0.0115666 0
0.0120617 0.0112802 0
0.014319 0.0135889 0
0.0114534 0.0224317 0
0 0.0222623 0
0 0.0115666 0
0.458329 0.424207 0
0.464527 0.418222 0
0.473766 0.422312 0
0.471686 0.431772 0
0.462048 0.433012 0
0.458329 0.424207 0
0.80127 0.486993 0
0.801544 0.480373 0
0.804193 0.477948 0
0.814933 0.479609 0
0.816438 0.481872 0
0.813739 0.490201 0
0.808518 0.492012 0
0.80127 0.486993 0
0 0 0
0.0126585 0 0
0.0120617 0.0112802 0
0 0.0115666 0
0 0 0
0.0120617 0.0112802 0
0.0126585 0 0
0.0265052 0 0
0.0265094 0.000367341 0
0.0192129 0.0134067 0
0.014319 0.0135889 0
0.0120617 0.0112802 0
0.478168 0.397102 0
0.484551 0.399305 0
0.487071 0.408302 0
0.478682 0.412123 0
0.47207 0.407066 0
0.472372 0.400967 0
0.478168 0.397102 0
0.829937 0.473664 0
0.83724 0.473531 0
0.841118 0.48247 0
0.837235 0.487278 0
0.829213 0.487232 0
0.825823 0.482517 0
0.829937 0.473664 0
0.0265094 0.000367341 0
0.0265052 0 0
0.0418393 0 0
0.0397709 0.012642 0
0.0337173 0.0132958 0
0.0265094 0.000367341 0
0.46357 0.412064 0
0.47207 0.407066 0
0.478682 0.412123 0
0.477398 0.420528 0
0.473766 0.422312 0
0.464527 0.418222 0
0.46357 0.412064 0
0.0192129 0.0134067 0
0.0265094 0.000367341 0
0.0337173 0.0132958 0
0.028785 0.0187542 0
0.0264547 0.0189972 0
0.0192129 0.0134067 0
0.825823 0.482517 0
0.829213 0.487232 0
0.825055 0.495896 0
0.821439 0.496555 0
0.813739 0.490201 0
0.816438 0.481872 0
0.825823 0.482517 0
0.0114534 0.0224317 0
0.014319 0.0135889 0
0.0192129 0.0134067 0
0.0264547 0.0189972 0
0.0202746 0.0279108 0
0.0138154 0.0260545 0
0.0114534 0.0224317 0
0.478682 0.412123 0
0.487071 0.408302 0
0.488652 0.409087 0
0.491942 0.42055 0
0.484561 0.424135 0
0.477398 0.420528 0
0.478682 0.412123 0
0.817975 0.469053 0
0.825131 0.468206 0
0.829937 0.473664 0
0.825823 0.482517 0
0.816438 0.481872 0
0.814933 0.479609 0
0.817975 0.469053 0
0 0.0222623 0
0.0114534 0.0224317 0
0.0138154 0.0260545 0
0.00627689 0.0355859 0
0 0.0353048 0
0 0.0222623 0
0.849044 0.456382 0
0.852342 0.462114 0
0.849646 0.468986 0
0.840284 0.469372 0
0.836807 0.459775 0
0.838792 0.457092 0
0.849044 0.456382 0
0.0202746 0.0279108 0
0.0264547 0.0189972 0
0.028785 0.0187542 0
0.0363069 0.0273566 0
0.0350253 0.0303193 0
0.0277087 0.0332626 0
0.0219126 0.0309095 0
0.0202746 0.0279108 0
0.841118 0.48247 0
0.83724 0.473531 0
0.840284 0.469372 0
0.849646 0.468986 0
0.852672 0.473526 0
0.848256 0.482696 0
0.841118 0.48247 0
0.498611 0.405934 0
0.502596 0.408682 0
0.503218 0.416739 0
0.494117 0.42135 0
0.491942 0.42055 0
0.488652 0.409087 0
0.498611 0.405934 0
0.852342 0.462114 0
0.86273 0.461805 0
0.865431 0.469501 0
0.861424 0.474756 0
0.852672 0.473526 0
0.849646 0.468986 0
0.852342 0.462114 0
0.028785 0.0187542 0
0.0337173 0.0132958 0
0.0397709 0.012642 0
0.0429415 0.0148571 0
0.0422284 0.0249406 0
0.0363069 0.0273566 0
0.028785 0.0187542 0
0.0397709 0.012642 0
0.0418393 0 0
0.0503746 0 0
0.0511678 0.0132023 0
0.0429415 0.0148571 0
0.0397709 0.012642 0
0.475626 0.436287 0
0.471686 0.431772 0
0.473766 0.422312 0
0.477398 0.420528 0
0.484561 0.424135 0
0.484489 0.434548 0
0.475626 0.436287 0
0.852672 0.473526 0
0.861424 0.474756 0
0.86362 0.481558 0
0.859361 0.487395 0
0.852597 0.487663 0
0.848256 0.482696 0
0.852672 0.473526 0
0.0511678 0.0132023 0
0.0503746 0 0
0.0611414 0 0
0.0608493 0.0127384 0
0.0539909 0.0147078 0
0.0511678 0.0132023 0
0.071479 0.0125839 0
0.0653283 0.014768 0
0.0608493 0.0127384 0
0.0611414 0 0
0.0709467 0 0
0.071479 0.0125839 0
0.484561 0.424135 0
0.491942 0.42055 0
0.494117 0.42135 0
0.498284 0.433008 0
0.487206 0.436555 0
0.484489 0.434548 0
0.484561 0.424135 0
0.837235 0.487278 0
0.841118 0.48247 0
0.848256 0.482696 0
0.852597 0.487663 0
0.848523 0.496761 0
0.840456 0.495444 0
0.837235 0.487278 0
0.0413005 0.0398384 0
0.0350253 0.0303193 0
0.0363069 0.0273566 0
0.0422284 0.0249406 0
0.0480504 0.027626 0
0.0481437 0.0375613 0
0.0440225 0.0402971 0
0.0413005 0.0398384 0
0.873289 0.48308 0
0.87513 0.487581 0
0.870477 0.49576 0
0.863912 0.495294 0
0.859361 0.487395 0
0.86362 0.481558 0
0.873289 0.48308 0
0.371626 0.439464 0
0.376948 0.434935 0
0.386203 0.437839 0
0.385737 0.446196 0
0.378356 0.4495 0
0.372445 0.446298 0
0.371626 0.439464 0
0.0422284 0.0249406 0
0.0429415 0.0148571 0
0.0511678 0.0132023 0
0.0539909 0.0147078 0
0.0541427 0.0249523 0
0.0480504 0.027626 0
0.0422284 0.0249406 0
0.865431 0.469501 0
0.874287 0.470253 0
0.876913 0.476714 0
0.873289 0.48308 0
0.86362 0.481558 0
0.861424 0.474756 0
0.865431 0.469501 0
0.0589147 0.0398771 0
0.0594668 0.0273713 0
0.0652944 0.0254223 0
0.0696819 0.0275784 0
0.0709569 0.0358002 0
0.0640274 0.0406327 0
0.0589147 0.0398771 0
0.430344 0.925838 0
0.434552 0.919464 0
0.442307 0.919767 0
0.446371 0.925689 0
0.441902 0.934379 0
0.432708 0.932474 0
0.430344 0.925838 0
0.386203 0.437839 0
0.388688 0.435841 0
0.400304 0.438719 0
0.400616 0.445634 0
0.390793 0.450095 0
0.385737 0.446196 0
0.386203 0.437839 0
0.874094 0.367761 0
0.874749 0.366868 0
0.88238 0.364433 0
0.88929 0.369054 0
0.88663 0.378005 0
0.877591 0.378638 0
0.874094 0.367761 0
0.0539909 0.0147078 0
0.0608493 0.0127384 0
0.0653283 0.014768 0
0.0652944 0.0254223 0
0.0594668 0.0273713 0
0.0541427 0.0249523 0
0.0539909 0.0147078 0
0.378252 0.458709 0
0.378356 0.4495 0
0.385737 0.446196 0
0.390793 0.450095 0
0.391403 0.458071 0
0.386562 0.461944 0
0.378252 0.458709 0
0.0480504 0.027626 0
0.0541427 0.0249523 0
0.0594668 0.0273713 0
0.0589147 0.0398771 0
0.0582702 0.0401952 0
0.0481437 0.0375613 0
0.0480504 0.027626 0
0.862596 0.373969 0
0.865446 0.369499 0
0.874094 0.367761 0
0.877591 0.378638 0
0.874973 0.382044 0
0.865372 0.380828 0
0.862596 0.373969 0
0 0.0353048 0
0.00627689 0.0355859 0
0.013046 0.0421589 0
0.00793612 0.0496899 0
0 0.0493785 0
0 0.0353048 0
0.390793 0.450095 0
0.400616 0.445634 0
0.404975 0.449443 0
0.402335 0.460785 0
0.40093 0.461508 0
0.391403 0.458071 0
0.390793 0.450095 0
0.877591 0.378638 0
0.88663 0.378005 0
0.890258 0.382005 0
0.886948 0.391514 0
0.876497 0.389226 0
0.874973 0.382044 0
0.877591 0.378638 0
0.0138154 0.0260545 0
0.0202746 0.0279108 0
0.0219126 0.0309095 0
0.0149519 0.0419472 0
0.013046 0.0421589 0
0.00627689 0.0355859 0
0.0138154 0.0260545 0
0.400304 0.438719 0
0.402934 0.435999 0
0.41184 0.436237 0
0.414953 0.443207 0
0.412461 0.448227 0
0.404975 0.449443 0
0.400616 0.445634 0
0.400304 0.438719 0
0.88929 0.369054 0
0.895026 0.367411 0
0.89843 0.369088 0
0.90071 0.378702 0
0.89867 0.381443 0
0.890258 0.382005 0
0.88663 0.378005 0
0.88929 0.369054 0
0.0149519 0.0419472 0
0.0219126 0.0309095 0
0.0277087 0.0332626 0
0.0284499 0.0454521 0
0.0232434 0.0471771 0
0.0149519 0.0419472 0
0.414953 0.443207 0
0.425074 0.442648 0
0.428735 0.448593 0
0.424671 0.45552 0
0.417033 0.455413 0
0.412461 0.448227 0
0.414953 0.443207 0
0.0284499 0.0454521 0
0.0277087 0.0332626 0
0.0350253 0.0303193 0
0.0413005 0.0398384 0
0.0318073 0.0466871 0
0.0284499 0.0454521 0
0.88291 0.403696 0
0.87381 0.399879 0
0.872445 0.394414 0
0.876497 0.389226 0
0.886948 0.391514 0
0.888145 0.393705 0
0.884313 0.403213 0
0.88291 0.403696 0
0.00793612 0.0496899 0
0.013046 0.0421589 0
0.0149519 0.0419472 0
0.0232434 0.0471771 0
0.0206912 0.0554433 0
0.0117862 0.055408 0
0.00793612 0.0496899 0
0.42777 0.435694 0
0.437455 0.435064 0
0.439699 0.445378 0
0.436051 0.448767 0
0.428735 0.448593 0
0.425074 0.442648 0
0.42777 0.435694 0
0.884313 0.403213 0
0.888145 0.393705 0
0.8982 0.395194 0
0.900329 0.403865 0
0.892386 0.407857 0
0.884313 0.403213 0
0 0.0493785 0
0.00793612 0.0496899 0
0.0117862 0.055408 0
0.00820084 0.0637052 0
0 0.0642129 0
0 0.0493785 0
0.89867 0.381443 0
0.902158 0.390969 0
0.8982 0.395194 0
0.888145 0.393705 0
0.886948 0.391514 0
0.890258 0.382005 0
0.89867 0.381443 0
0.0127424 0.0682672 0
0.00820084 0.0637052 0
0.0117862 0.055408 0
0.0206912 0.0554433 0
0.0239931 0.0598298 0
0.0171901 0.0685192 0
0.0127424 0.0682672 0
0.41184 0.436237 0
0.415322 0.430614 0
0.424494 0.430858 0
0.42777 0.435694 0
0.425074 0.442648 0
0.414953 0.443207 0
0.41184 0.436237 0
0.0206912 0.0554433 0
0.0232434 0.0471771 0
0.0284499 0.0454521 0
0.0318073 0.0466871 0
0.0352637 0.0542316 0
0.0268182 0.0602881 0
0.0239931 0.0598298 0
0.0206912 0.0554433 0
0.910746 0.378443 0
0.914406 0.370669 0
0.918135 0.369904 0
0.924982 0.375474 0
0.923803 0.382523 0
0.920193 0.385246 0
0.914708 0.3849 0
0.910746 0.378443 0
0.402335 0.460785 0
0.404975 0.449443 0
0.412461 0.448227 0
0.417033 0.455413 0
0.412355 0.464017 0
0.402335 0.460785 0
0.0268182 0.0602881 0
0.0352637 0.0542316 0
0.0379415 0.0551309 0
0.0416242 0.0643644 0
0.037591 0.0693458 0
0.0328008 0.0699544 0
0.0268182 0.0602881 0
0.902158 0.390969 0
0.89867 0.381443 0
0.90071 0.378702 0
0.910746 0.378443 0
0.914708 0.3849 0
0.909006 0.391649 0
0.902158 0.390969 0
0.424671 0.45552 0
0.428735 0.448593 0
0.436051 0.448767 0
0.439612 0.460303 0
0.437972 0.462463 0
0.428272 0.462395 0
0.424671 0.45552 0
0.0440225 0.0402971 0
0.0481437 0.0375613 0
0.0582702 0.0401952 0
0.0546618 0.0512602 0
0.0519194 0.0523135 0
0.0467503 0.0504367 0
0.0440225 0.0402971 0
0.417033 0.455413 0
0.424671 0.45552 0
0.428272 0.462395 0
0.424203 0.469514 0
0.413537 0.466751 0
0.412355 0.464017 0
0.417033 0.455413 0
0.907471 0.36499 0
0.914406 0.370669 0
0.910746 0.378443 0
0.90071 0.378702 0
0.89843 0.369088 0
0.907471 0.36499 0
0.0318073 0.0466871 0
0.0413005 0.0398384 0
0.0440225 0.0402971 0
0.0467503 0.0504367 0
0.0379415 0.0551309 0
0.0352637 0.0542316 0
0.0318073 0.0466871 0
0.38028 0.482496 0
0.379305 0.473922 0
0.386797 0.469665 0
0.392925 0.473028 0
0.390971 0.485454 0
0.39018 0.485878 0
0.38028 0.482496 0
0.924982 0.375474 0
0.932952 0.372035 0
0.939256 0.378048 0
0.936266 0.387581 0
0.923803 0.382523 0
0.924982 0.375474 0
0.0546618 0.0512602 0
0.0582702 0.0401952 0
0.0589147 0.0398771 0
0.0640274 0.0406327 0
0.0698106 0.0519455 0
0.0624804 0.0548723 0
0.0546618 0.0512602 0
0.914708 0.3849 0
0.920193 0.385246 0
0.923944 0.39795 0
0.923732 0.398273 0
[...]
CELL_DATA 6400
FIELD FieldData 3
weight 1 6400 float
 0.0485206 0.0526572 0.0535205 0.0484689 0.0485692 0.052431 0.0534284 0.0487066 0.0525349 0.0486632 0.0535512 0.0486408 0.0525451 0.0533981 0.0485779 0.0531876 0.0487552 0.0533332 0.0525099 0.053196 0.048779 0.0487822 0.0526718 0.0533506 0.0488439 0.0489035 0.0526666 0.0534998 0.0488934 0.0533958 0.0529031 0.0488633 0.0532399 0.0490332 0.0552464 0.0528944 0.0520869 0.0489346 0.053035 0.048971 0.0521679 0.0486446 0.0530055 0.0522037 0.0486904 0.0528623 0.0520538 0.0487969 0.0529283 0.0488729 0.0523274 0.0487881 0.0528349 0.052316 0.048721 0.0521806 0.048854 0.0527959 0.0489 0.0519197 0.0530199 0.0490162 0.0520676 0.0529925 0.0490182 0.0530736 0.0519588 0.0489677 0.0533006 0.05184 0.04911 0.052078 0.0531703 0.0490736 0.0522041 0.0491541 0.0531574 0.0519707 0.0492208 0.0531446 0.0524694 0.0489572 0.0490477 0.053443 0.0524815 0.0490618 0.0491036 0.0533077 0.0523947 0.0490117 0.0489974 0.0526073 0.0490922 0.0534584 0.0525524 0.0491455 0.0532094 0.0523197 0.0491905 0.0531321 0.0521841 0.0491563 0.049106 0.0520511 0.0533866 0.0492032 0.0491522 0.0524694 0.0533541 0.0492472 0.0524484 0.0492712 0.0532837 0.0523075 0.0491942 0.0491404 0.0534189 0.0523165 0.0492413 0.0492385 0.05176 0.0527987 0.0492982 0.0492934 0.0515786 0.0528439 0.0493339 0.0519028 0.0494261 0.0516564 0.0527685 0.0518148 0.0493595 0.0514797 0.0529445 0.0493531 0.0513101 0.049399 0.0529827 0.0512303 0.0495144 0.0511339 0.0529067 0.0489356 0.0516668 0.0488107 0.0515295 0.0527966 0.0489747 0.0514095 0.0488884 0.0490291 0.0527878 0.0519997 0.0490586 0.0521656 0.049161 0.0530494 0.0491178 0.0518558 0.0491464 0.0529309 0.0521437 0.049229 0.0520054 0.0493302 0.0529222 0.0517479 0.0492275 0.0530842 0.0515353 0.0492549 0.0514641 0.0493762 0.0532222 0.0513443 0.0491183 0.0489696 0.0531073 0.0517976 0.0490525 0.0519301 0.0492404 0.0533767 0.0516377 0.0491293 0.0515938 0.0491999 0.0532422 0.049304 0.0528399 0.0493189 0.0533755 0.0494752 0.0527084 0.0532357 0.0494594 0.0526871 0.0493725 0.0532119 0.0495447 0.0529691 0.0493895 0.0530711 0.052835 0.0494791 0.0526007 0.0495658 0.0530824 0.0493093 0.0525849 0.0494145 0.0532148 0.0494085 0.052451 0.0493536 0.0533707 0.0527471 0.0495217 0.0526986 0.0494454 0.0533561 0.0495686 0.0525749 0.0494724 0.0533539 0.0531155 0.0494455 0.0495902 0.0498399 0.0530883 0.0494904 0.049834 0.0529659 0.0495594 0.0498739 0.0496155 0.0532574 0.0498847 0.0495141 0.0496568 0.0499323 0.0532691 0.0495368 0.0498832 0.0531221 0.0496206 0.0499237 0.0496506 0.0528301 0.0498261 0.0496547 0.0498709 0.0530196 0.0497241 0.0498673 0.0528646 0.0552152 0.0496864 0.0497278 0.0498301 0.0497593 0.049926 0.0498013 0.0492208 0.0492494 0.0491862 0.0492587 0.0493262 0.0498206 0.0493006 0.0527048 0.0493432 0.049295 0.0499239 0.0554307 0.0493836 0.0499169 0.0493574 0.0531618 0.0492971 0.055379 0.0499917 0.0493301 0.0529773 0.0494216 0.0553224 0.0500359 0.0528547 0.0493977 0.0499794 0.0552188 0.049451 0.0530646 0.0552752 0.0500889 0.0493904 0.0494251 0.0551236 0.052272 0.0494911 0.050046 0.055176 0.0521246 0.0495126 0.0550252 0.0500893 0.0520381 0.0549973 0.0495469 0.0500297 0.0523922 0.0549309 0.0499699 0.0494699 0.054853 0.0523714 0.0499767 0.049572 0.0551407 0.0499473 0.0495024 0.0522377 0.0550005 0.0500035 0.0494691 0.0519044 0.0517239 0.0500803 0.0550902 0.0495217 0.0500218 0.0518167 0.0549592 0.049568 0.0500626 0.0521425 0.0548152 0.049579 0.049812 0.0520062 0.054922 0.0498023 0.0519503 0.0547563 0.0496753 0.0498419 0.0548224 0.0525307 0.0497866 0.0496541 0.0546882 0.0493622 0.0498811 0.0525207 0.0546824 0.0493922 0.0499246 0.0523093 0.0546025 0.0494214 0.049884 0.0528057 0.0545628 0.049424 0.0497669 0.0545473 0.0494552 0.0497465 0.0526712 0.0548019 0.0494794 0.0498039 0.0546596 0.0526534 0.0498258 0.0495382 0.0547768 0.0498635 0.0524249 0.0495124 0.0545452 0.049788 0.0521571 0.0546634 0.0498459 0.0522568 0.0494553 0.0499908 0.0545507 0.0520524 0.0494842 0.0499911 0.054982 0.0523949 0.0494896 0.0499644 0.0550179 0.0495678 0.0525474 0.0500486 0.0547732 0.0495202 0.0521746 0.0500377 0.0548456 0.0500229 0.0523303 0.0495495 0.0499135 0.0550277 0.0495995 0.0526686 0.0499599 0.0496277 0.0525504 0.0550854 0.0498885 0.0524805 0.049551 0.0499022 0.0550735 0.0495825 0.0526917 0.0500073 0.0549151 0.0496524 0.0527931 0.0499486 0.0548341 0.0495998 0.0499972 0.054903 0.0527586 0.0496837 0.054652 0.050141 0.0497077 0.0529613 0.0546299 0.0501967 0.0496748 0.0546809 0.0530783 0.0501406 0.0545427 0.0496093 0.0528807 0.0545181 0.0496329 0.0502463 0.054661 0.0530855 0.0501965 0.0497135 0.0547528 0.0531741 0.0502516 0.0497411 0.0547443 0.0527608 0.0501339 0.0497319 0.054519 0.0526402 0.0501088 0.054618 0.0497646 0.0531041 0.0501242 0.0545167 0.0501861 0.049607 0.0528652 0.0546057 0.050234 0.0530866 0.0496397 0.0545143 0.0529009 0.0502469 0.0496859 0.0529558 0.0501791 0.0497559 0.0532507 0.0502262 0.0534463 0.0496988 0.0529987 0.0503642 0.0497096 0.0535899 0.0532942 0.0503102 0.0496369 0.053554 0.0532365 0.0503001 0.0497448 0.0533469 0.0497206 0.0504254 0.0534482 0.0534472 0.0497948 0.0503645 0.0531791 0.0498262 0.0536122 0.0503593 0.0498036 0.0534008 0.0537356 0.0532475 0.0504218 0.0537253 0.0497622 0.0534859 0.0503522 0.0533044 0.0497743 0.0503034 0.0535262 0.0533673 0.0498516 0.0503444 0.0535513 0.0535291 0.0502856 0.0499331 0.0536714 0.0533362 0.050422 0.0498618 0.0538078 0.0504075 0.0535279 0.0499051 0.05368 0.050406 0.0535287 0.050009 0.0501442 0.0539 0.053691 0.0499082 0.0500879 0.0538299 0.0534105 0.0499524 0.0501376 0.0536755 0.0539743 0.0500905 0.0498748 0.0535259 0.0501597 0.0540255 0.0499409 0.0502173 0.0536916 0.050004 0.0541695 0.0501935 0.0538334 0.050129 0.0536528 0.0541583 0.0500817 0.0500727 0.0537966 0.0539679 0.0499886 0.0500517 0.0536869 0.0501098 0.0538442 0.0497557 0.0538508 0.050203 0.0498256 0.053843 0.0539327 0.0501799 0.0497884 0.0541394 0.0539887 0.0501636 0.0498867 0.0540484 0.0540148 0.0499253 0.0502769 0.0540259 0.0498543 0.0503209 0.0541073 0.0536493 0.0499519 0.0531841 0.0502533 0.0535278 0.049818 0.0530564 0.0504031 0.0535641 0.0534238 0.0498124 0.0503428 0.0532495 0.0537943 0.0498875 0.0503775 0.0533727 0.0537068 0.0502564 0.0533353 0.0498665 0.0503133 0.0535107 0.0535322 0.0499581 0.0502444 0.0498788 0.0535045 0.0535817 0.0502377 0.0537004 0.049942 0.0536276 0.0503655 0.0536266 0.0499939 0.0538088 0.0538355 0.0500173 0.0503589 0.0536885 0.0536579 0.0500501 0.0503023 0.0538423 0.0538784 0.050088 0.0537486 0.0502954 0.0534668 0.0539595 0.0497258 0.0500798 0.0538006 0.0497682 0.0538982 0.0535464 0.0500272 0.0497014 0.0541315 0.0536815 0.0500326 0.0498226 0.0540682 0.0536112 0.0498044 0.0501352 0.0542081 0.0538349 0.0497495 0.0536874 0.0539723 0.0496773 0.0501232 0.0497195 0.0540348 0.053958 0.0496269 0.0502093 0.0539442 0.0538818 0.049694 0.0496504 0.049297 0.0541374 0.0540454 0.049777 0.0492286 0.0540355 0.0542528 0.0497225 0.0493831 0.0497468 0.0540307 0.0540989 0.0494782 0.054199 0.0499313 0.0493045 0.0543424 0.0498686 0.049407 0.0542022 0.0499081 0.0543102 0.0495839 0.0538568 0.0498482 0.0495761 0.0538323 0.0543865 0.0499783 0.0540041 0.0496509 0.0499453 0.0545213 0.0540211 0.0499654 0.0496641 0.0544663 0.0540575 0.0498874 0.0497604 0.0542102 0.0542295 0.0498245 0.0497326 0.054173 0.0543165 0.049777 0.0496521 0.0497992 0.0542031 0.0541901 0.0498256 0.0493963 0.04992 0.0544892 0.0542906 0.0498674 0.0494946 0.0543872 0.0543352 0.0496161 0.0498959 0.0545555 0.0497138 0.0498488 0.0543442 0.0494829 0.0547182 0.0496675 0.054185 0.0495536 0.049598 0.0546369 0.0543666 0.049573 0.0496751 0.0497106 0.0543566 0.0497772 0.0547276 0.0497973 0.0543693 0.0496917 0.0545576 0.0498832 0.0496442 0.054532 0.0498572 0.0496172 0.0545298 0.0548912 0.0495489 0.0500187 0.0495974 0.0545062 0.0499427 0.0548137 0.0495526 0.04975 0.0545294 0.0546799 0.0495303 0.0498032 0.049511 0.0546983 0.0547351 0.0499295 0.0496682 0.0546948 0.054856 0.049847 0.0496083 0.0547191 0.0498678 0.0496602 0.0548934 0.0497625 0.0499848 0.0535084 0.0548744 0.0498296 0.049889 0.0536479 0.0543102 0.0497376 0.0500188 0.049799 0.0543832 0.04989 0.0535056 0.0498768 0.0542449 0.0500168 0.0536389 0.0498546 0.0545041 0.0500571 0.0496908 0.0544039 0.0536532 0.0501023 0.0545516 0.0497663 0.0537894 0.0499778 0.0543011 0.0497252 0.0538024 0.0501292 0.0544125 0.0497233 0.0545575 0.0499466 0.0537123 0.0498316 0.0545051 0.0538139 0.0500698 0.0497944 0.0501038 0.0545633 0.0536708 0.0498272 0.0501422 0.0537926 0.0546973 0.0502302 0.0500352 0.0539862 0.054709 0.0501866 0.0538669 0.0500999 0.0547034 0.050142 0.05394 0.0500297 0.0548753 0.0501816 0.0500117 0.0539614 0.0548599 0.0503058 0.050149 0.054102 0.0549955 0.0502114 0.0501333 0.054115 0.0548148 0.0500855 0.0503367 0.0539626 0.0499844 0.0502575 0.0546793 0.0541594 0.049964 0.0540354 0.0504202 0.0547145 0.050113 0.0541596 0.0500639 0.0503873 0.0549941 0.0543083 0.0500396 0.0496343 0.0548651 0.050093 0.0543144 0.0497981 0.0500202 0.0549867 0.0537132 0.0498319 0.0502406 0.0499383 0.0502581 0.0535287 0.0536573 0.0497317 0.0502061 0.049912 0.0535308 0.0537019 0.0502888 0.0538781 0.0499642 0.0536992 0.0538157 0.0501499 0.050351 0.0538273 0.0538812 0.0500098 0.053853 0.0503508 0.0539714 0.050094 0.0536921 0.0503172 0.050232 0.053791 0.0501891 0.0536235 0.0500599 0.050239 0.0536209 0.0537331 0.0501659 0.0501602 0.0539445 0.0537596 0.0502307 0.0501496 0.0539175 0.0538802 0.0503142 0.0503008 0.0537636 0.0540644 0.0498409 0.0502285 0.0538892 0.0541328 0.0501795 0.050291 0.0538804 0.0540494 0.0500711 0.0499438 0.0540535 0.0500338 0.0542276 0.049998 0.0501163 0.0543421 0.0539815 0.0499814 0.0500199 0.0544008 0.0542113 0.0499193 0.0499312 0.0542307 0.0541295 0.0500738 0.0502697 0.0543454 0.0542855 0.0500383 0.0541525 0.0500589 0.054015 0.0502692 0.0540513 0.0498733 0.0540896 0.0503469 0.0499646 0.054218 0.0540704 0.0504898 0.0498985 0.054226 0.0540876 0.0504307 0.0498915 0.0542741 0.0543142 0.0503429 0.0500179 0.054251 0.0543876 0.0505718 0.0499639 0.0537123 0.0543621 0.0499492 0.0502691 0.0537464 0.0541868 0.0503175 0.050206 0.0538133 0.0542837 0.0503713 0.0501336 0.0542902 0.0501931 0.0505402 0.0536592 0.0544656 0.0501197 0.0504159 0.05388 0.0504511 0.0545564 0.0539555 0.0502699 0.0544506 0.0504683 0.0537504 0.050521 0.0536885 0.0505703 0.0537576 0.0506432 0.0538925 0.0506143 0.053927 0.0504345 0.0539473 0.0505756 0.0540226 0.0505068 0.0541318 0.0506405 0.0501943 0.0541898 0.050625 0.0546161 0.0543486 0.050705 0.0543066 0.0544595 0.0502665 0.0507597 0.054229 0.054469 0.0540668 0.0501141 0.0507095 0.0542337 0.0544731 0.0506618 0.0501122 0.0540694 0.05462 0.0507397 0.0500461 0.0546384 0.0541131 0.0508644 0.0501828 0.0544042 0.0546362 0.0508031 0.0544042 0.0547204 0.0502048 0.0508415 0.054435 0.0548176 0.0501389 0.0542699 0.0509604 0.0548759 0.0543739 0.0504798 0.050035 0.0549836 0.0545451 0.0500058 0.0548932 0.0505377 0.054445 0.0501133 0.0547865 0.0505363 0.0547167 0.0547789 0.050098 0.0546445 0.0504836 0.0545489 0.0549398 0.0501678 0.050601 0.0547928 0.0506146 0.0543913 0.0502001 0.0550489 0.0544425 0.0504764 0.0500642 0.0505344 0.0551037 0.0544312 0.0501484 0.0505377 0.0549365 0.0547313 0.0501897 0.0546281 0.0551125 0.0504718 0.0546089 0.0501966 0.0544981 0.0504708 0.050306 0.0547867 0.050611 0.0545307 0.0502518 0.0506001 0.0546519 0.054855 0.0502567 0.0506073 0.0546836 0.0503748 0.0548237 0.0544845 0.0502824 0.0507303 0.0550171 0.0545852 0.0503853 0.0506613 0.0550774 0.0545578 0.0504662 0.0506851 0.0549597 0.0546578 0.0503479 0.0506801 0.054923 0.0547491 0.0504796 0.0548134 0.0508062 0.0548302 0.0502932 0.054959 0.0507516 0.0503947 0.0547414 0.0549894 0.0507651 0.0503626 0.0548255 0.0506707 0.0551526 0.0504906 0.0549596 0.0506749 0.0551293 0.0505694 0.0548619 0.0507491 0.0545166 0.0504978 0.0508167 0.0551075 0.0546457 0.0504611 0.0507441 0.0549995 0.0544762 0.0501359 0.0504643 0.054818 0.0551685 0.0505097 0.0501875 0.0546869 0.0549267 0.0504445 0.0547398 0.0501694 0.0505255 0.0549198 0.0505358 0.0503112 0.0545689 0.0550134 0.0505968 0.0503617 0.0505808 0.0546128 0.0502497 0.0551799 0.0505052 0.0502928 0.0550799 0.0545681 0.050429 0.0503802 0.0547192 0.0551074 0.0502294 0.0504311 0.0548119 0.0537515 0.0549837 0.0502217 0.0504296 0.0538767 0.0548736 0.0505831 0.0539832 0.05031 0.0505826 0.0549162 0.0541101 0.050391 0.0505074 0.0551665 0.0540086 0.0502845 0.0506662 0.0541103 0.0550591 0.0503078 0.0507213 0.0551067 0.0542092 0.0503861 0.0506486 0.0543456 0.0548816 0.0507948 0.0504265 0.0543846 0.0504523 0.0507422 0.0549925 0.0542475 0.0507241 0.0505457 0.0550591 0.0544748 0.0507869 0.0505416 0.0552246 0.0545237 0.0506436 0.0505644 0.0546296 0.0506552 0.0551632 0.0504754 0.0541312 0.0504755 0.0506444 0.05507 0.054236 0.0507231 0.0505658 0.054488 0.0549966 0.0542432 0.0507533 0.0504838 0.0544727 0.050725 0.0551765 0.0543613 0.0506479 0.0543828 0.055219 0.0508827 0.0505654 0.0546063 0.0552047 0.0508307 0.0506435 0.0547658 0.0551847 0.0508937 0.0547042 0.0505472 0.0550237 0.0509556 0.0546339 0.0505802 0.0550754 0.0509882 0.054884 0.0505939 0.05506 0.0509416 0.0545619 0.0506683 0.0553619 0.0508275 0.054529 0.0507333 0.0553593 0.0508892 0.0552262 0.0547183 0.0507 0.050887 0.0553672 0.0505866 0.0547036 0.0508193 0.0506921 0.0548847 0.0509693 0.0554682 0.0506643 0.0547037 0.0509647 0.055382 0.0507744 0.0548337 0.0509584 0.0556034 0.0508517 0.054857 0.0510911 0.050744 0.0555117 0.0548475 0.0556425 0.0510276 0.0507564 0.0550083 0.0556543 0.0510216 0.0508017 0.0551709 0.0555152 0.0550124 0.0510871 0.0509256 0.0555182 0.0548297 0.0508234 0.0554242 0.0511695 0.0549364 0.0556601 0.050889 0.0551466 0.0511717 0.0557148 0.0549469 0.0509936 0.0511852 0.0555993 0.0550561 0.0510112 0.051041 0.055166 0.0550735 0.0508393 0.0550417 0.0511138 0.0550544 0.0509338 0.055149 0.0510338 0.0551375 0.0509465 0.0553024 0.051028 0.0553485 0.0510345 0.0552393 0.0511165 0.0552756 0.0552993 0.0509407 0.0552742 0.0511866 0.0554034 0.0551338 0.0511121 0.0510387 0.055426 0.0550999 0.0510534 0.0511953 0.0543465 0.0544504 0.0552736 0.0507297 0.0508743 0.0545656 0.0552839 0.0508718 0.0506418 0.0547069 0.0553868 0.0508753 0.0506329 0.0545317 0.0555191 0.0509483 0.0546524 0.0507272 0.0555236 0.0509447 0.0547946 0.0508349 0.0554411 0.0508022 0.0549059 0.0508326 0.0556521 0.0508116 0.0548361 0.0508303 0.0556402 0.050952 0.0549899 0.0508815 0.0557212 0.0507425 0.05497 0.0554274 0.0509492 0.050668 0.0551003 0.0555747 0.0550928 0.0508787 0.0507375 0.0555619 0.0546139 0.0510292 0.0554403 0.0508704 0.0547182 0.0510328 0.0555708 0.0548832 0.0508237 0.0511927 0.055707 0.0548088 0.0509426 0.0556912 0.0511104 0.0548382 0.0509313 0.0546797 0.0511907 0.0557402 0.0510415 0.0549705 0.0558565 0.0511902 0.0511086 0.0549668 0.0557647 0.0511459 0.0510377 0.0550541 0.0510378 0.0559561 0.0511448 0.0552149 0.055966 0.0510317 0.0558815 0.0509466 0.0510351 0.055118 0.0559995 0.0551963 0.050997 0.0557737 0.0511938 0.0551504 0.0557913 0.0511098 0.0551825 0.0510374 0.0558307 0.0552821 0.0558949 0.0511902 0.0509249 0.0560038 0.0552453 0.0511121 0.055912 0.0511029 0.0553895 0.0560118 0.0504239 0.0510454 0.0553707 0.0560513 0.0504793 0.0555033 0.0561048 0.051168 0.0504035 0.0555438 0.0560756 0.0495118 0.0505582 0.0555895 0.049567 0.0505713 0.0554539 0.0561918 0.0496136 0.0504992 0.0556389 0.0495414 0.0505257 0.0557072 0.0561282 0.0504501 0.0496232 0.0553374 0.0561823 0.0497025 0.050371 0.055365 0.0561501 0.0496418 0.0503814 0.0555232 0.0560998 0.049601 0.0504769 0.055489 0.0560977 0.0496355 0.0505503 0.0495745 0.0553602 0.0505276 0.0561765 0.0496252 0.0554552 0.0504504 0.0496909 0.0561754 0.0555945 0.049694 0.0506324 0.0557854 0.055552 0.0496895 0.0506039 0.0558068 0.0556821 0.0559025 0.0496631 0.050707 0.0559308 0.0558163 0.0496906 0.0506945 0.0560355 0.0497576 0.0556597 0.0560235 0.0506409 0.0497437 0.0558255 0.0505986 0.0557311 0.0507095 0.0558245 0.0498067 0.0507505 0.0559403 0.0558528 0.0498255 0.0559164 0.0506663 0.056028 0.0498267 0.0557785 0.0560617 0.04976 0.0550205 0.0503548 0.0497465 0.055965 0.0504234 0.0497743 0.0561408 0.0550528 0.0560644 0.0503313 0.049816 0.0551661 0.056113 0.0503394 0.0498186 0.0551589 0.0561561 0.0504938 0.0498873 0.0552202 0.0504278 0.0562251 0.0498835 0.0553264 0.0496997 0.0562231 0.0502658 0.0552113 0.049632 0.0561969 0.0503226 0.0496573 0.0552474 0.0561987 0.0496818 0.0502432 0.0553576 0.0497225 0.0561233 0.0554657 0.0503077 0.0497503 0.0561598 0.0553192 0.0497626 0.0504221 0.0554275 0.0562606 0.049781 0.0504194 0.0553146 0.0497062 0.0562282 0.0504128 0.0554512 0.0497442 0.0505787 0.0553042 0.0497268 0.0554566 0.0505843 0.0552181 0.0498012 0.0555768 0.0505035 0.0497676 0.0554526 0.0551491 0.0506667 0.0498224 0.0555697 0.0552399 0.0506691 0.0498148 0.0556051 0.050583 0.0553875 0.0498385 0.055726 0.0505015 0.0498294 0.0555991 0.0555131 0.0505018 0.0557464 0.0554702 0.0499018 0.0557312 0.0553993 0.050491 0.0499327 0.0553061 0.05531 0.0506723 0.0499452 0.0498721 0.0505922 0.0553255 0.0552518 0.0499073 0.0506705 0.0554754 0.0554005 0.0498443 0.0555036 0.0554056 0.0498665 0.0554594 0.0556649 0.0506638 0.0555623 0.0556316 0.0499279 0.0505808 0.049891 0.0552545 0.0508542 0.055767 0.0499606 0.0557635 0.055345 0.050794 0.0499737 0.0558616 0.050783 0.0555579 0.0552784 0.0498753 0.0508424 0.0557034 0.0554302 0.0499361 0.050932 0.0556173 0.0555076 0.0499265 0.0558431 0.0509486 0.055582 0.0558789 0.0500085 0.0509379 0.0556869 0.0557987 0.0508087 0.0500231 0.0555523 0.055755 0.0507528 0.0500246 0.0556089 0.0553232 0.0499611 0.0557179 0.0509553 0.0557272 0.0508924 0.055235 0.0498904 0.0558246 0.0508439 0.0499452 0.0558567 0.0552973 0.0509289 0.0556714 0.0555397 0.049995 0.0510279 0.0553988 0.0500016 0.0557168 0.0510944 0.0554686 0.055864 0.0500837 0.0510178 0.0554189 0.0558061 0.0500754 0.0511941 0.0500475 0.0554586 0.0558452 0.0511138 0.0556966 0.0500978 0.0553205 0.0511903 0.0555968 0.0555134 0.0500885 0.0511075 0.0556866 0.0555769 0.0501082 0.0510606 0.0557806 0.0556018 0.0510088 0.0558752 0.0501647 0.0556455 0.0557892 0.0510255 0.0501832 0.0556367 0.0558571 0.0511416 0.0501513 0.0557656 0.0558341 0.0501266 0.0511255 0.0559489 0.0556562 0.0502106 0.050773 0.0558499 0.05592 0.050206 0.0507624 0.0559149 0.0557931 0.0559653 0.050853 0.0502806 0.0559021 0.0560389 0.050223 0.0507527 0.0557216 0.0558656 0.0509395 0.0502872 0.055722 0.0559664 0.0509408 0.0499681 0.0558377 0.0508504 0.0558971 0.0500222 0.0559433 0.0508374 0.049996 0.0559443 0.0558275 0.0508407 0.0500622 0.0560234 0.0501033 0.0507597 0.0558706 0.0560128 0.0500477 0.0560643 0.0507501 0.0559066 0.0501172 0.0561195 0.0509446 0.0559865 0.0500719 0.0561391 0.0560281 0.0509379 0.0500112 0.0560652 0.0560925 0.050024 0.0508475 0.0559861 0.0561167 0.0501282 0.0559216 0.0510193 0.0561626 0.0501006 0.0559856 0.0510295 0.0562026 0.0501374 0.0560442 0.056118 0.0502331 0.0559388 0.051124 0.0501526 0.0560512 0.0560898 0.0511207 0.0559584 0.0501904 0.056127 0.0560479 0.0511218 0.0501791 0.0561896 0.0561446 0.0510249 0.0503021 0.0559992 0.0562195 0.0510648 0.0559345 0.050324 0.0562893 0.0502497 0.0510225 0.0559789 0.0562691 0.0501918 0.0560617 0.0511309 0.0563226 0.0502017 0.0561878 0.0562514 0.0561089 0.0502551 0.0511262 0.0562289 0.0561475 0.050254 0.0561607 0.0562103 0.0561948 0.0511886 0.0503212 0.0561341 0.0494856 0.0563109 0.0503292 0.0562231 0.049451 0.0562865 0.0562734 0.0503225 0.0494818 0.05626 0.0497469 0.0563616 0.0495247 0.0497894 0.056337 0.0560585 0.0495953 0.0497635 0.0562903 0.0560262 0.0495666 0.0498448 0.0562042 0.0561537 0.049532 0.049811 0.0561546 0.0562754 0.0494197 0.0498684 0.0560521 0.0562345 0.0493878 0.0498278 0.0559891 0.049846 0.0494523 0.0563115 0.0497738 0.0560818 0.0494172 0.0563463 0.0498563 0.049351 0.0559667 0.0497891 0.0561979 0.0563578 0.0494942 0.0498933 0.056096 0.04947 0.0499166 0.0537792 0.0561863 0.0496456 0.0561568 0.049882 0.0497036 0.053694 0.0562574 0.0499431 0.0496284 0.0562345 0.0538405 0.0499669 0.0563184 0.0495966 0.0499025 0.056276 0.0536721 0.0496811 0.0500037 0.053942 0.0563424 0.0499912 0.0539036 0.0563574 0.0497704 0.0500375 0.0540326 0.0563885 0.0497713 0.0499334 0.0562495 0.