# vtk DataFile Version 3.0
vtk output
ASCII
DATASET UNSTRUCTURED_GRID
POINTS 44489 float
0 0 0
0.0079232 0 0
0.0104819 0.0115981 0
0.00306793 0.0160843 0
0 0.0161506 0
0 0 0
0.56427 0.0302663 0
0.564822 0.0419109 0
0.56378 0.0428116 0
0.553193 0.0409636 0
0.551096 0.0337328 0
0.557818 0.0267235 0
0.56427 0.0302663 0
0.00306793 0.0160843 0
0.0104819 0.0115981 0
0.0165699 0.0130522 0
0.0185413 0.0154721 0
0.014036 0.0264666 0
0.0118806 0.0268386 0
0.00306793 0.0160843 0
0.122463 0.535435 0
0.122838 0.536982 0
0.11346 0.546769 0
0.108609 0.545477 0
0.105575 0.533897 0
0.105911 0.533486 0
0.118819 0.532639 0
0.122463 0.535435 0
0.0079232 0 0
0.0240827 0 0
0.0165699 0.0130522 0
0.0104819 0.0115981 0
0.0079232 0 0
0.535873 0.0561095 0
0.531544 0.049948 0
0.534884 0.0425653 0
0.537129 0.0420185 0
0.548025 0.0480439 0
0.548325 0.0508403 0
0.545784 0.0550985 0
0.535873 0.0561095 0
0.0165699 0.0130522 0
0.0240827 0 0
0.0267631 0 0
0.0299206 0.0133045 0
0.0252398 0.0166629 0
0.0185413 0.0154721 0
0.0165699 0.0130522 0
0.0900052 0.545569 0
0.0923775 0.544582 0
0.102856 0.549633 0
0.101863 0.559326 0
0.0974204 0.560887 0
0.089449 0.556331 0
0.0900052 0.545569 0
0.0267631 0 0
0.0380164 0 0
0.038716 0.012024 0
0.0361661 0.0143886 0
0.0299206 0.0133045 0
0.0267631 0 0
0.533904 0.0678475 0
0.532603 0.065675 0
0.535873 0.0561095 0
0.545784 0.0550985 0
0.548374 0.0642536 0
0.545659 0.0683625 0
0.533904 0.0678475 0
0.0111801 0.0397933 0
0.00610521 0.0330245 0
0.0118806 0.0268386 0
0.014036 0.0264666 0
0.0199558 0.0303319 0
0.0195121 0.0397348 0
0.0190116 0.0402276 0
0.0111801 0.0397933 0
0.106894 0.56186 0
0.117502 0.553252 0
0.124133 0.555205 0
0.124272 0.55543 0
0.119734 0.568239 0
0.108766 0.566186 0
0.106894 0.56186 0
0 0.0161506 0
0.00306793 0.0160843 0
0.0118806 0.0268386 0
0.00610521 0.0330245 0
0 0.032836 0
0 0.0161506 0
0.545784 0.0550985 0
0.548325 0.0508403 0
0.561779 0.0549003 0
0.559471 0.0646387 0
0.548374 0.0642536 0
0.545784 0.0550985 0
0.014036 0.0264666 0
0.0185413 0.0154721 0
0.0252398 0.0166629 0
0.0279189 0.0270052 0
0.0199558 0.0303319 0
0.014036 0.0264666 0
0.102856 0.549633 0
0.108609 0.545477 0
0.11346 0.546769 0
0.117502 0.553252 0
0.106894 0.56186 0
0.101863 0.559326 0
0.102856 0.549633 0
0.548025 0.0480439 0
0.553193 0.0409636 0
0.56378 0.0428116 0
0.563549 0.0536266 0
0.561779 0.0549003 0
0.548325 0.0508403 0
0.548025 0.0480439 0
0.0195121 0.0397348 0
0.0199558 0.0303319 0
0.0279189 0.0270052 0
0.0308391 0.0281753 0
0.0319071 0.039742 0
0.0315084 0.0402616 0
0.0195121 0.0397348 0
0.568642 0.00323286 0
0.56861 0 0
0.586461 0 0
0.586126 0.00662281 0
0.575188 0.0110068 0
0.568642 0.00323286 0
0.00560246 0.57387 0
0.01377 0.566465 0
0.0164583 0.567415 0
0.0206961 0.574603 0
0.0175306 0.581235 0
0.0118473 0.581217 0
0.00560246 0.57387 0
0.0279189 0.0270052 0
0.0252398 0.0166629 0
0.0299206 0.0133045 0
0.0361661 0.0143886 0
0.0384097 0.0248975 0
0.0308391 0.0281753 0
0.0279189 0.0270052 0
0.561373 0.0169279 0
0.560244 0.0112139 0
0.568642 0.00323286 0
0.575188 0.0110068 0
0.573989 0.0186043 0
0.573341 0.0191691 0
0.561373 0.0169279 0
0.0384097 0.0248975 0
0.0361661 0.0143886 0
0.038716 0.012024 0
0.0479591 0.0124328 0
0.047945 0.0240307 0
0.0410197 0.0260257 0
0.0384097 0.0248975 0
0.586461 0 0
0.601152 0 0
0.601165 0.00304315 0
0.596351 0.0106589 0
0.58945 0.0106556 0
0.586126 0.00662281 0
0.586461 0 0
0.567475 0.50727 0
0.567564 0.504962 0
0.57685 0.496858 0
0.583823 0.50274 0
0.581428 0.512715 0
0.570925 0.51136 0
0.567475 0.50727 0
0.575188 0.0110068 0
0.586126 0.00662281 0
0.58945 0.0106556 0
0.586033 0.0211731 0
0.573989 0.0186043 0
0.575188 0.0110068 0
0.0380164 0 0
0.0493456 0 0
0.0495933 0.0110947 0
0.0479591 0.0124328 0
0.038716 0.012024 0
0.0380164 0 0
0 0.560508 0
0.0111518 0.561787 0
0.01377 0.566465 0
0.00560246 0.57387 0
0 0.573531 0
0 0.560508 0
0.0587231 0.0128429 0
0.0617676 0.0104374 0
0.0697917 0.0119189 0
0.0675993 0.0252189 0
0.0644521 0.026494 0
0.0585869 0.0235648 0
0.0587231 0.0128429 0
0.573341 0.0191691 0
0.573989 0.0186043 0
0.586033 0.0211731 0
0.587442 0.023883 0
0.584176 0.0318075 0
0.57823 0.033096 0
0.572201 0.0273573 0
0.573341 0.0191691 0
0.0272814 0.558913 0
0.0291053 0.560634 0
0.0298795 0.573981 0
0.0206961 0.574603 0
0.0164583 0.567415 0
0.0272814 0.558913 0
0.570925 0.51136 0
0.581428 0.512715 0
0.581772 0.513212 0
0.578513 0.52652 0
0.569961 0.527063 0
0.567309 0.524027 0
0.570925 0.51136 0
0.0495933 0.0110947 0
0.0493456 0 0
0.0598634 0 0
0.0617676 0.0104374 0
0.0587231 0.0128429 0
0.0495933 0.0110947 0
0.557111 0.0228684 0
0.561373 0.0169279 0
0.573341 0.0191691 0
0.572201 0.0273573 0
0.56427 0.0302663 0
0.557818 0.0267235 0
0.557111 0.0228684 0
0 0.573531 0
0.00560246 0.57387 0
0.0118473 0.581217 0
0.00569841 0.589051 0
0 0.590141 0
0 0.573531 0
0.0479591 0.0124328 0
0.0495933 0.0110947 0
0.0587231 0.0128429 0
0.0585869 0.0235648 0
0.052267 0.0258903 0
0.047945 0.0240307 0
0.0479591 0.0124328 0
0.586033 0.0211731 0
0.58945 0.0106556 0
0.596351 0.0106589 0
0.600563 0.0185487 0
0.597811 0.0250789 0
0.587442 0.023883 0
0.586033 0.0211731 0
0.00569841 0.589051 0
0.0118473 0.581217 0
0.0175306 0.581235 0
0.0201274 0.585723 0
0.0195954 0.59268 0
0.0142799 0.596165 0
0.00569841 0.589051 0
0.554428 0.52641 0
0.558325 0.522915 0
0.567309 0.524027 0
0.569961 0.527063 0
0.567437 0.535925 0
0.563492 0.537595 0
0.554896 0.533457 0
0.554428 0.52641 0
0.587442 0.023883 0
0.597811 0.0250789 0
0.599829 0.0290529 0
0.596478 0.0370417 0
0.59003 0.0375934 0
0.584176 0.0318075 0
0.587442 0.023883 0
0.0195954 0.59268 0
0.0201274 0.585723 0
0.0318429 0.584595 0
0.035046 0.589419 0
0.0323967 0.595351 0
0.0275867 0.597282 0
0.0195954 0.59268 0
0.0308391 0.0281753 0
0.0384097 0.0248975 0
0.0410197 0.0260257 0
0.0431177 0.0381013 0
0.0319071 0.039742 0
0.0308391 0.0281753 0
0.581772 0.513212 0
0.593308 0.51667 0
0.587986 0.530275 0
0.583413 0.530666 0
0.578513 0.52652 0
0.581772 0.513212 0
0.601165 0.00304315 0
0.601152 0 0
0.618931 0 0
0.619103 0.00569431 0
0.611685 0.0117518 0
0.601165 0.00304315 0
0.0175306 0.581235 0
0.0206961 0.574603 0
0.0298795 0.573981 0
0.0323428 0.575544 0
0.0318429 0.584595 0
0.0201274 0.585723 0
0.0175306 0.581235 0
0.0410197 0.0260257 0
0.047945 0.0240307 0
0.052267 0.0258903 0
0.0525359 0.0363425 0
0.0453822 0.0397226 0
0.0431177 0.0381013 0
0.0410197 0.0260257 0
0.601165 0.00304315 0
0.611685 0.0117518 0
0.610862 0.0175255 0
0.600563 0.0185487 0
0.596351 0.0106589 0
0.601165 0.00304315 0
0.597065 0.506182 0
0.6028 0.504526 0
0.609176 0.509706 0
0.606885 0.519263 0
0.6027 0.520675 0
0.593903 0.51645 0
0.597065 0.506182 0
0.0385127 0.573892 0
0.042287 0.567335 0
0.0485372 0.566271 0
0.0570657 0.571999 0
0.0438254 0.580407 0
0.0385127 0.573892 0
0.0525359 0.0363425 0
0.052267 0.0258903 0
0.0585869 0.0235648 0
0.0644521 0.026494 0
0.063462 0.0351015 0
0.0569367 0.0380918 0
0.0525359 0.0363425 0
0.611685 0.0117518 0
0.619103 0.00569431 0
0.625252 0.0110591 0
0.625533 0.0191419 0
0.612582 0.0197874 0
0.610862 0.0175255 0
0.611685 0.0117518 0
0.00664198 0.048098 0
0.0111801 0.0397933 0
0.0190116 0.0402276 0
0.0201664 0.0516658 0
0.014374 0.0541289 0
0.00664198 0.048098 0
0.0291053 0.560634 0
0.0382466 0.561943 0
0.042287 0.567335 0
0.0385127 0.573892 0
0.0323428 0.575544 0
0.0298795 0.573981 0
0.0291053 0.560634 0
0.599829 0.0290529 0
0.597811 0.0250789 0
0.600563 0.0185487 0
0.610862 0.0175255 0
0.612582 0.0197874 0
0.611298 0.0308257 0
0.599829 0.0290529 0
0.618212 0.499166 0
0.625539 0.497304 0
0.630995 0.502101 0
0.628845 0.511394 0
0.622116 0.513066 0
0.615953 0.507785 0
0.618212 0.499166 0
0 0.032836 0
0.00610521 0.0330245 0
0.0111801 0.0397933 0
0.00664198 0.048098 0
0 0.0491211 0
0 0.032836 0
0.612582 0.0197874 0
0.625533 0.0191419 0
0.626745 0.0204599 0
0.626759 0.0263968 0
0.612854 0.0329931 0
0.611298 0.0308257 0
0.612582 0.0197874 0
0.0522697 0.555921 0
0.0613691 0.556731 0
0.0622193 0.55812 0
0.0595218 0.571087 0
0.0575926 0.572094 0
0.0570657 0.571999 0
0.0485372 0.566271 0
0.0522697 0.555921 0
0.609176 0.509706 0
0.615953 0.507785 0
0.622116 0.513066 0
0.619268 0.522271 0
0.614519 0.523865 0
0.606885 0.519263 0
0.609176 0.509706 0
0.0190116 0.0402276 0
0.0195121 0.0397348 0
0.0315084 0.0402616 0
0.0321849 0.0486389 0
0.022922 0.0527973 0
0.0201664 0.0516658 0
0.0190116 0.0402276 0
0.572201 0.0273573 0
0.57823 0.033096 0
0.574816 0.0419737 0
0.564822 0.0419109 0
0.56427 0.0302663 0
0.572201 0.0273573 0
0.0318429 0.584595 0
0.0323428 0.575544 0
0.0385127 0.573892 0
0.0438254 0.580407 0
0.0440441 0.587615 0
0.035046 0.589419 0
0.0318429 0.584595 0
0 0.0587812 0
0.0120429 0.0607845 0
0.0132254 0.0641999 0
0.00465044 0.0731487 0
0 0.0731535 0
0 0.0587812 0
0.58566 0.0468954 0
0.59003 0.0375934 0
0.596478 0.0370417 0
0.601203 0.0425421 0
0.596776 0.0513077 0
0.589114 0.0516304 0
0.58566 0.0468954 0
0.0438254 0.580407 0
0.0570657 0.571999 0
0.0575926 0.572094 0
0.0583515 0.58274 0
0.0471703 0.589776 0
0.0440441 0.587615 0
0.0438254 0.580407 0
0 0.0491211 0
0.00664198 0.048098 0
0.014374 0.0541289 0
0.0120429 0.0607845 0
0 0.0587812 0
0 0.0491211 0
0.0471703 0.589776 0
0.0583515 0.58274 0
0.0652542 0.587717 0
0.063761 0.59278 0
0.0532041 0.597113 0
0.0485082 0.593142 0
0.0471703 0.589776 0
0.605413 0.495613 0
0.612129 0.493828 0
0.618212 0.499166 0
0.615953 0.507785 0
0.609176 0.509706 0
0.6028 0.504526 0
0.605413 0.495613 0
0.0248421 0.060025 0
0.022922 0.0527973 0
0.0321849 0.0486389 0
0.0362417 0.0511241 0
0.0378691 0.0583203 0
0.0352615 0.0613701 0
0.0248421 0.060025 0
0.0575926 0.572094 0
0.0595218 0.571087 0
0.0680087 0.573664 0
0.0714222 0.58453 0
0.0652542 0.587717 0
0.0583515 0.58274 0
0.0575926 0.572094 0
0.57823 0.033096 0
0.584176 0.0318075 0
0.59003 0.0375934 0
0.58566 0.0468954 0
0.577668 0.0462752 0
0.574816 0.0419737 0
0.57823 0.033096 0
0.593308 0.51667 0
0.593903 0.51645 0
0.6027 0.520675 0
0.600428 0.53226 0
0.593357 0.533897 0
0.587986 0.530275 0
0.593308 0.51667 0
0.0352615 0.0613701 0
0.0354766 0.0712838 0
0.0289238 0.0732537 0
[...]
CELL_DATA 6400
FIELD FieldData 3
weight 1 6400 float
 0.0526439 0.0548538 0.0527434 0.0530239 0.0527244 0.0549217 0.0527915 0.0528311 0.0528486 0.0549666 0.0528046 0.052933 0.0527089 0.0549452 0.0528278 0.0529255 0.0549025 0.052893 0.0546975 0.052072 0.0528826 0.0547456 0.052961 0.0546494 0.0545375 0.0547322 0.052924 0.0520605 0.0531117 0.0547761 0.0522067 0.0544765 0.0530026 0.0547904 0.0519767 0.0530325 0.0547246 0.0520005 0.0544157 0.0547711 0.0520929 0.0529648 0.054443 0.0546458 0.0521375 0.0530293 0.0546859 0.0544534 0.0523453 0.0531048 0.0546661 0.0528386 0.0522838 0.0547206 0.0544467 0.0527593 0.054707 0.0524403 0.0544121 0.0529152 0.0548374 0.0522259 0.0528334 0.0548316 0.0523475 0.0528141 0.0523347 0.054495 0.0529933 0.0524192 0.0548302 0.0544018 0.0530189 0.0519033 0.0543626 0.0529102 0.0549254 0.0518079 0.0543188 0.0530022 0.0519771 0.0548795 0.0543792 0.0530774 0.0548816 0.0520502 0.0543296 0.0548777 0.0531069 0.0517227 0.0543337 0.0547623 0.0531822 0.0518175 0.0542751 0.0547811 0.0518674 0.0530897 0.0542169 0.0519559 0.0547292 0.0542473 0.0531598 0.0521684 0.0548321 0.0543078 0.0531647 0.0521848 0.0548584 0.0530801 0.0542209 0.0523 0.0532447 0.0548014 0.0542695 0.053199 0.0520224 0.0549917 0.0542078 0.0531855 0.0532744 0.0521359 0.0541591 0.054993 0.0532476 0.052148 0.0533456 0.0550462 0.0542424 0.0533034 0.0541643 0.0534242 0.0533493 0.054144 0.0534543 0.0540574 0.0533865 0.0540864 0.0534403 0.0541671 0.0535262 0.0542408 0.0525266 0.0535044 0.0542131 0.0550527 0.0532938 0.0540662 0.053358 0.0525187 0.0550101 0.0541466 0.05501 0.0526635 0.0532402 0.0540965 0.052711 0.0533243 0.0549783 0.0540244 0.0533879 0.0550762 0.0523928 0.0534469 0.0550449 0.053947 0.0525179 0.0550365 0.0534369 0.0539819 0.0550426 0.0527743 0.0535146 0.0539432 0.0528512 0.0535719 0.0550943 0.0538667 0.0535021 0.0550966 0.0529722 0.053897 0.0526468 0.0536248 0.0538326 0.0551719 0.0535719 0.0527642 0.0539606 0.0529216 0.0526961 0.0551257 0.0539242 0.0528668 0.0540204 0.0528193 0.0551648 0.0530781 0.0538691 0.0522873 0.0551399 0.0529874 0.0524405 0.0538254 0.0551151 0.0529463 0.055079 0.0524281 0.0528985 0.0541596 0.055115 0.0525536 0.0531253 0.0541898 0.0550792 0.0541225 0.0530416 0.0523116 0.0551511 0.0531439 0.0540735 0.052294 0.0551482 0.0540914 0.0532658 0.0523744 0.0551188 0.0540171 0.0532314 0.0525133 0.0549661 0.0540949 0.053196 0.0526222 0.0549231 0.0541559 0.0531802 0.0549133 0.053276 0.0527201 0.0540631 0.0550037 0.0533335 0.0540354 0.0524953 0.0549964 0.0529352 0.0539963 0.054959 0.0529741 0.0540047 0.0525872 0.0549054 0.0530589 0.0539662 0.0530694 0.0532915 0.0529656 0.0539251 0.0530089 0.0548424 0.0533284 0.0538964 0.0531674 0.0549535 0.0538049 0.0530917 0.0549373 0.0534054 0.0538028 0.0532173 0.0548875 0.0538646 0.0531627 0.0534914 0.0550365 0.0539653 0.0550278 0.0532997 0.0538713 0.0531668 0.0550668 0.0532239 0.0539286 0.0532872 0.0551064 0.0533745 0.0538539 0.0533973 0.055085 0.0537601 0.0533048 0.0550721 0.053586 0.0538418 0.0533116 0.0549808 0.0533771 0.0549615 0.0537581 0.0534078 0.0536776 0.0549958 0.0534622 0.0543967 0.055039 0.0535843 0.0534074 0.0550296 0.0543556 0.0534888 0.0534837 0.0535016 0.0549983 0.0533919 0.0543614 0.0536236 0.0546 0.0534772 0.0543112 0.0535537 0.054621 0.0542746 0.0535456 0.0545723 0.0536556 0.0543106 0.054542 0.05319 0.0535759 0.054266 0.054657 0.0536675 0.0530839 0.0546054 0.0542968 0.0532918 0.0537133 0.0546777 0.0542231 0.0544999 0.053073 0.0537667 0.0545393 0.0542132 0.0544715 0.053184 0.0534642 0.0544151 0.0541702 0.053359 0.0545817 0.0533759 0.0542662 0.0534405 0.0545153 0.0535369 0.0541763 0.0544653 0.0532486 0.053555 0.0542204 0.0545454 0.0532562 0.0534533 0.0540816 0.0533412 0.0547396 0.0546452 0.0535169 0.0541236 0.0536579 0.0541296 0.0547722 0.0537167 0.0537347 0.0540361 0.0547266 0.0536408 0.0541801 0.0547439 0.0538103 0.0541276 0.0537318 0.0546102 0.0540675 0.0546759 0.0536227 0.0536366 0.0540708 0.0546053 0.0537188 0.0540221 0.0537507 0.0545718 0.0538238 0.05424 0.0547079 0.0537979 0.0546728 0.0539075 0.0541934 0.0535134 0.0546492 0.0536821 0.0541138 0.0543721 0.0535918 0.0543213 0.054124 0.0539979 0.0535565 0.0543748 0.0541609 0.0536284 0.0544467 0.053915 0.0540707 0.0536493 0.0545091 0.0537463 0.0540245 0.0544359 0.0537216 0.0543726 0.0536738 0.0538347 0.054121 0.0544012 0.05375 0.0537429 0.0538355 0.0543151 0.0538276 0.0541029 0.0542752 0.053813 0.0535194 0.053812 0.054244 0.0536553 0.0540255 0.0538918 0.054222 0.0534291 0.0537091 0.0543353 0.0540141 0.0534718 0.0542694 0.0535987 0.053572 0.053942 0.054529 0.0536461 0.0536687 0.0540441 0.054559 0.0537319 0.053751 0.0544686 0.0537892 0.0539269 0.0537552 0.0546275 0.0540265 0.0537163 0.0545731 0.0535829 0.0539798 0.0537834 0.0544926 0.0536756 0.0539541 0.053815 0.0544097 0.0538925 0.0539143 0.0544101 0.0536736 0.0538876 0.0539221 0.0543556 0.0536034 0.0538562 0.053942 0.0544717 0.0531473 0.0539396 0.0538568 0.0543748 0.0530159 0.0539895 0.0538491 0.0544466 0.0529137 0.0540129 0.0537943 0.0548268 0.052919 0.0539033 0.0537737 0.0547904 0.0539033 0.053012 0.0539787 0.0549144 0.0531533 0.0536917 0.0539774 0.0548781 0.0532396 0.0539749 0.0540219 0.0540373 0.0539889 0.0540907 0.0540622 0.0539466 0.0540774 0.0539224 0.0541286 0.0538934 0.0541309 0.0539657 0.0541977 0.0539414 0.0541551 0.0539226 0.0548341 0.0538489 0.0542153 0.053334 0.0538511 0.0539815 0.0540596 0.0537441 0.0548697 0.0531158 0.0541167 0.0538479 0.05477 0.0541557 0.0530215 0.0538191 0.0547264 0.0541333 0.0531432 0.0537465 0.054059 0.0546866 0.0528114 0.0537603 0.0542184 0.0548068 0.0529186 0.0536672 0.054198 0.0547473 0.0528105 0.0547587 0.0542454 0.0536408 0.0529034 0.0549528 0.0537778 0.0542871 0.0526982 0.0537606 0.0549128 0.0542922 0.0549087 0.0536547 0.0526159 0.0542353 0.0537072 0.0549581 0.052834 0.0537368 0.0536142 0.0549478 0.0527339 0.0538885 0.0536824 0.0548021 0.0530387 0.0538065 0.0548734 0.0529409 0.0535703 0.0548505 0.0537999 0.0531361 0.0538439 0.0538695 0.0547802 0.0538341 0.0530231 0.0538763 0.0548323 0.0537489 0.0539688 0.0549065 0.0528445 0.0538149 0.054057 0.054805 0.0537427 0.0529555 0.0539613 0.0536549 0.0539523 0.0548652 0.0533681 0.0536556 0.0540419 0.0546453 0.053474 0.0537225 0.0541093 0.054606 0.053409 0.0540353 0.0545412 0.0536228 0.0532529 0.0538492 0.0546853 0.0537031 0.0532933 0.0546065 0.0538135 0.0536321 0.0533173 0.0546436 0.0539189 0.0545774 0.0535176 0.053545 0.0538759 0.0545137 0.053649 0.0535683 0.0535588 0.0538839 0.0544569 0.0534806 0.0535538 0.0539733 0.054521 0.0533849 0.0535607 0.05446 0.0539597 0.0534744 0.0547462 0.0531967 0.0540087 0.0534601 0.0547273 0.053177 0.0540959 0.0534557 0.0546815 0.0541413 0.0529985 0.0535565 0.0547614 0.0530865 0.0541161 0.0534657 0.054705 0.0530852 0.0540521 0.0534701 0.0547112 0.053381 0.0541744 0.0545625 0.0533774 0.0532611 0.0541345 0.0546333 0.0540969 0.0532788 0.0544999 0.053391 0.0541841 0.0545229 0.0532817 0.0542493 0.0537806 0.0546467 0.0531732 0.0541874 0.0545809 0.0537396 0.0542141 0.0532867 0.0542972 0.0536738 0.0545604 0.051739 0.0543131 0.051633 0.0536896 0.0551944 0.0543571 0.0518657 0.0551983 0.0536199 0.0515513 0.0543728 0.0551812 0.0516889 0.0538115 0.0543671 0.055231 0.0515968 0.0537617 0.0544293 0.0517403 0.054261 0.0552118 0.0537351 0.0542127 0.0552214 0.0520252 0.0535816 0.0542941 0.05521 0.0519279 0.0536892 0.0543374 0.0551778 0.051874 0.0536533 0.0542571 0.0551647 0.0520503 0.0535969 0.0551586 0.0543254 0.0519822 0.0535141 0.05521 0.0544135 0.0551899 0.0535301 0.0517362 0.0551944 0.0543784 0.0535035 0.0518923 0.055245 0.0534201 0.0519165 0.0552466 0.0545205 0.0514787 0.0544652 0.0552616 0.0534079 0.0516315 0.0552581 0.0544026 0.0515981 0.0534115 0.0552362 0.0513068 0.0534706 0.0544626 0.055215 0.0513845 0.0535357 0.0552541 0.0514589 0.0545343 0.0533705 0.0552347 0.0514547 0.0530256 0.0552362 0.0533382 0.0517525 0.052983 0.0534409 0.0518559 0.0531828 0.0551305 0.0537071 0.0551392 0.0517312 0.0531083 0.0537569 0.0551087 0.0529988 0.0515883 0.0551689 0.0536557 0.0530558 0.0516286 0.0551396 0.0536269 0.0532143 0.05508 0.0517467 0.0535368 0.0531539 0.0516455 0.0550726 0.05359 0.053344 0.0536334 0.0521484 0.0532555 0.0550414 0.0537021 0.0551128 0.0534173 0.0521986 0.0551047 0.0533864 0.0536833 0.0520738 0.0551929 0.0532792 0.0521134 0.0551958 0.0535973 0.0551725 0.0534434 0.0522014 0.0535137 0.0551726 0.0533656 0.055214 0.0524465 0.0530684 0.0535711 0.0552148 0.0530165 0.0534238 0.052361 0.0551922 0.0532231 0.0534732 0.055123 0.0531306 0.0523243 0.0535231 0.0551378 0.0531541 0.0534208 0.0530308 0.0525235 0.0550908 0.0533111 0.0530983 0.0551627 0.0524124 0.0533486 0.0532484 0.0551392 0.0522674 0.0533043 0.0531586 0.0551067 0.0522055 0.0534821 0.0532902 0.0552733 0.0533978 0.0533793 0.0523348 0.0552666 0.0534465 0.0552796 0.0518905 0.0533356 0.0532712 0.0552885 0.0519712 0.053316 0.0533805 0.0552998 0.0520069 0.0534042 0.0533099 0.0552907 0.0517646 0.0534505 0.0552543 0.0532924 0.0552676 0.0519231 0.0534683 0.0532273 0.0552515 0.0521065 0.05356 0.0552765 0.0533167 0.0522168 0.0552632 0.0535867 0.0533031 0.0520473 0.0535093 0.0553058 0.0532256 0.0552999 0.0535965 0.0522092 0.0531201 0.0537384 0.0520982 0.0531058 0.0536551 0.0513276 0.0553069 0.053261 0.0511793 0.0536648 0.0531852 0.0553053 0.0513735 0.0531672 0.0552926 0.0514635 0.0538257 0.0552746 0.0532434 0.0512572 0.0537055 0.0552866 0.0511041 0.0530804 0.0537933 0.0552583 0.0531405 0.0552663 0.0538244 0.0530655 0.0552879 0.0535235 0.0529278 0.0552828 0.0535988 0.0536548 0.0552746 0.0530341 0.0552316 0.0535245 0.0530083 0.0552061 0.0534812 0.0530012 0.0552472 0.0536837 0.0552147 0.053629 0.0552226 0.0528422 0.0537023 0.0551775 0.0537429 0.0528065 0.0551528 0.0538511 0.0529067 0.0538005 0.0551168 0.0529031 0.0537597 0.055193 0.0529753 0.0551916 0.0538361 0.0529544 0.0551653 0.0538927 0.0527966 0.0530871 0.0552397 0.0528549 0.0530473 0.0552235 0.0531924 0.0532233 0.0552482 0.0530421 0.0532024 0.0531204 0.0531141 0.055257 0.0531871 0.0530761 0.0532201 0.0552325 0.0531565 0.05329 0.0551991 0.0531783 0.0532542 0.0551706 0.0532063 0.0534414 0.053369 0.0530312 0.0551809 0.0530861 0.0532963 0.0551454 0.0533762 0.0530891 0.053443 0.0529915 0.0551816 0.0529326 0.0530374 0.0530371 0.0531065 0.055206 0.0529937 0.0532564 0.0551494 0.0532393 0.0528602 0.0531449 0.0528752 0.0530431 0.0549982 0.0528189 0.0531102 0.0550387 0.0528476 0.0532074 0.0529316 0.0533219 0.0549879 0.0528407 0.0533853 0.055021 0.0529451 0.0534711 0.0550661 0.0528004 0.0533107 0.0549784 0.0527399 0.0533779 0.0549999 0.0534076 0.0549298 0.0527371 0.0534802 0.0535763 0.0548962 0.0535627 0.0548676 0.0536655 0.0535218 0.0549414 0.0536443 0.0535585 0.0535918 0.0549069 0.0535098 0.0535172 0.0550456 0.0534552 0.053683 0.0550248 0.0534699 0.0537372 0.0534561 0.0538292 0.0550691 0.0535452 0.0539169 0.0550821 0.0535019 0.0537717 0.055042 0.0534251 0.0539286 0.054999 0.0533591 0.0538648 0.0549766 0.0533777 0.0536243 0.0549376 0.0534018 0.0535645 0.0533081 0.0537065 0.0550091 0.0533512 0.0536446 0.0549592 0.0532116 0.0535634 0.0532491 0.053666 0.05483 0.0532596 0.0537269 0.0532762 0.0547905 0.0532709 0.0538045 0.0531642 0.054743 0.0537799 0.0531593 0.0548334 0.0538919 0.0531592 0.0547728 0.0530578 0.0538607 0.0533718 0.0546807 0.0537987 0.0534766 0.0546144 0.0538792 0.0533666 0.0547118 0.0538929 0.0533266 0.0540313 0.0546668 0.0532793 0.0540345 0.0532547 0.0546363 0.0539646 0.0533584 0.0548744 0.0539641 0.0532697 0.0548523 0.0538927 0.0532636 0.0547902 0.0540143 0.0548251 0.0531707 0.0541028 0.0531779 0.0549024 0.0542321 0.0530619 0.0549098 0.0542398 0.0531702 0.0541716 0.0548524 0.0531879 0.054167 0.0547347 0.0531086 0.0540894 0.0531708 0.0542286 0.0546833 0.054027 0.0530746 0.0547368 0.0539417 0.0529908 0.0547985 0.0540902 0.0530225 0.0547423 0.0530768 0.053976 0.0530739 0.054081 0.0546816 0.0541544 0.0529643 0.0541485 0.0529692 0.0551288 0.0542228 0.0529155 0.0542248 0.0550891 0.0541537 0.0528581 0.055051 0.0543009 0.0531031 0.0550584 0.0543048 0.0531437 0.0551372 0.0542993 0.0529763 0.0550977 0.0543718 0.0530293 0.0550701 0.0542961 0.0530422 0.0550135 0.0543663 0.052949 0.0530529 0.0544315 0.0549567 0.0529238 0.0544802 0.0549753 0.0529712 0.0550242 0.0544454 0.052856 0.0545294 0.0549826 0.0528806 0.0545159 0.0551085 0.0528398 0.0529221 0.0550754 0.0545927 0.0543039 0.0527359 0.054375 0.0551068 0.0527103 0.0544392 0.0528018 0.0543784 0.055081 0.0528708 0.0544513 0.0550319 0.0527915 0.0543925 0.055041 0.0527474 0.0545044 0.0545067 0.0526633 0.0549966 0.0545743 0.0526911 0.054568 0.0550411 0.0526377 0.0545292 0.0549976 0.052944 0.0549514 0.0546304 0.0529167 0.0549152 0.054609 0.0528761 0.0548153 0.0540008 0.0528309 0.0548596 0.054017 0.0527907 0.0512205 0.0548754 0.0540718 0.0527571 0.0549311 0.0515007 0.0528099 0.0539515 0.0548352 0.0516164 0.0540932 0.0548003 0.0528164 0.0547458 0.0514935 0.0540242 0.0527231 0.0541483 0.0513487 0.0546861 0.0526896 0.0542227 0.0547672 0.0514738 0.0526956 0.0543014 0.0511062 0.0546953 0.0541803 0.052675 0.0509757 0.0549437 0.0543236 0.0527204 0.0511428 0.054894 0.0542606 0.0526361 0.0548506 0.0512614 0.0539669 0.0525697 0.0509339 0.0540578 0.0549065 0.0509957 0.0524847 0.0541171 0.0549021 0.0508466 0.0541322 0.052604 0.0548579 0.0511263 0.0547839 0.0524445 0.0539572 0.0510003 0.054718 0.0525677 0.0540445 0.051345 0.0547992 0.0524942 0.0513382 0.054752 0.0541096 0.0525892 0.0542257 0.0514099 0.0542893 0.0524925 0.0546859 0.0511676 0.054215 0.0523886 0.0547366 0.0512044 0.0541101 0.0542212 0.0513358 0.0523468 0.0541588 0.0512435 0.054296 0.0524552 0.054196 0.0519355 0.0543915 0.0540544 0.051807 0.0544756 0.0540836 0.0539872 0.0544536 0.0518012 0.0541774 0.0543826 0.0539187 0.0515332 0.0541636 0.0544101 0.053993 0.0516648 0.0538898 0.0544876 0.054015 0.0516255 0.0539088 0.0545744 0.0538188 0.0517393 0.053934 0.0545205 0.0540504 0.0519862 0.053833 0.0540985 0.0546519 0.0519298 0.0537823 0.0539764 0.0545621 0.0520072 0.0546107 0.0543222 0.0538455 0.0521097 0.0542428 0.0546527 0.0537545 0.0518091 0.0542155 0.0543609 0.0537112 0.0518568 0.0542873 0.054442 0.053684 0.0518601 0.0545216 0.0542345 0.0536625 0.0515329 0.0544332 0.054311 0.0535705 0.0515978 0.054135 0.0543775 0.051648 0.053755 0.0540581 0.0544769 0.0513631 0.0537459 0.0539825 0.0545134 0.0514773 0.0541639 0.0537215 0.0545604 0.0541574 0.0536654 0.0514144 0.0546027 0.0540949 0.0536525 0.0546408 0.0540746 0.0516942 0.0535662 0.0538501 0.051744 0.0536266 0.0537758 0.0546027 0.0537008 0.0516204 0.053576 0.0537423 0.0535173 0.0517904 0.0546361 0.0538837 0.0535582 0.0542343 0.0539088 0.0515292 0.0534567 0.0538055 0.0541806 0.051671 0.0538329 0.0542923 0.0534297 0.053572 0.0543354 0.0526089 0.0536359 0.0542985 0.0536417 0.0536306 0.0527209 0.0535017 0.0542598 0.0524673 0.0536198 0.0543407 0.053719 0.0524533 0.0543864 0.0536863 0.0535735 0.0543525 0.0525182 0.053594 0.0543693 0.0535275 0.0543913 0.0535597 0.0525913 0.053515 0.0544237 0.0539164 0.0527384 0.0544183 0.0534145 0.0537893 0.0528585 0.0544875 0.0534261 0.0538493 0.0526669 0.0543817 0.053441 0.0540026 0.0526457 0.0543056 0.0539702 0.0533608 0.052788 0.0539187 0.0543291 0.0532707 0.0527671 0.0537362 0.0544436 0.0532801 0.0523506 0.0536449 0.0543843 0.0532262 0.0536895 0.052337 0.0544356 0.0533195 0.0537656 0.0524304 0.0544889 0.0534265 0.0538331 0.0545074 0.0522298 0.0534697 0.0537598 0.0544563 0.0523247 0.0533489 0.0545036 0.0536804 0.0525499 0.0533089 0.0545632 0.0525832 0.0545525 0.0526795 0.053312 0.0543883 0.0545891 0.0532522 0.0524365 0.0543898 0.0544878 0.0525544 0.0532563 0.0544402 0.0543169 0.0524381 0.0531979 0.0545469 0.0543947 0.0545317 0.0528975 0.053162 0.0543189 0.0545032 0.0529679 0.0545449 0.0542464 0.0531205 0.0529662 0.0545897 0.0541225 0.0530824 0.0546029 0.0530736 0.0541968 0.0545593 0.053596 0.0542506 0.0528567 0.054645 0.0534999 0.0541797 0.0545853 0.0528615 0.053531 0.0545898 0.0544484 0.0531609 0.0534397 0.0546708 0.054376 0.0531512 0.0533495 0.0546631 0.0544921 0.0534723 0.054567 0.0546155 0.0532407 0.0533582 0.0544065 0.0546469 0.0530237 0.0533717 0.0544273 0.0546239 0.0543052 0.0530302 0.0532851 0.0546506 0.0542827 0.0534019 0.052921 0.0546771 0.0541989 0.0533009 0.0547218 0.0531278 0.0542341 0.0532296 0.0526445 0.0547127 0.0543544 0.0534584 0.0547019 0.0527579 0.0533671 0.0543376 0.0547632 0.0527993 0.0532801 0.0527441 0.0542589 0.0547708 0.0532748 0.0525229 0.054463 0.0540343 0.0526353 0.0539153 0.0544258 0.0533736 0.0539974 0.0526929 0.0545269 0.0541458 0.052898 0.0545293 0.0531718 0.0540887 0.052984 0.0544948 0.053245 0.0540511 0.0528749 0.0545597 0.053177 0.0539706 0.0546044 0.0527522 0.0531783 0.0538946 0.054583 0.0527888 0.0538305 0.0531126 0.0546569 0.0538256 0.0532199 0.0546295 0.0528433 0.0546564 0.0537361 0.053187 0.052097 0.0546927 0.0538814 0.0531481 0.052202 0.0539543 0.0530758 0.0545132 0.0521916 0.0538037 0.0531487 0.0545711 0.0541212 0.0519976 0.0530406 0.0546113 0.0540976 0.0520983 0.0530151 0.0545887 0.0540382 0.0529506 0.0520528 0.0546402 0.0529801 0.0523238 0.0540056 0.054677 0.0530742 0.0523195 0.0541835 0.0546987 0.0529681 0.0523897 0.0547244 0.0541521 0.0528697 0.0521507 0.0547228 0.0540614 0.0530949 0.0522218 0.0547515 0.0539293 0.0529506 0.0522657 0.0547784 0.053848 0.0530587 0.0519319 0.0539746 0.0547053 0.0529136 0.0520078 0.054701 0.0538213 0.0519802 0.053031 0.0547501 0.0538927 0.0529774 0.0518472 0.0547566 0.0533761 0.0528643 0.0547526 0.0534454 0.0517074 0.0528667 0.0547787 0.0534411 0.0548446 0.0528426 0.05176 0.0533796 0.054823 0.0527783 0.0533166 0.0518727 0.054813 0.052748 0.0535407 0.0520387 0.0548604 0.052167 0.0534857 0.0532408 0.0548132 0.053376 0.0519081 0.0549171 0.0532509 0.0532946 0.0519528 0.054879 0.0531755 0.0520698 0.0547826 0.0531175 0.0548155 0.0532865 0.0548715 0.0520115 0.053204 0.0548161 0.0525177 0.0532058 0.0548492 0.0524689 0.054905 0.0535518 0.0549291 0.0525831 0.0548768 0.0536072 0.0523594 0.0548981 0.0534811 0.0523877 0.0549541 0.0534569 0.0524283 0.0549571 0.0536275 0.0526516 0.0549796 0.0535481 0.0546557 0.052606 0.0533365 0.0546166 0.052741 0.0533831 0.0546787 0.0546556 0.0525407 0.0532478 0.0547021 0.0524693 0.0534148 0.0547113 0.0534054 0.0526433 0.0547531 0.0546787 0.0525201 0.0532868 0.0547081 0.0533213 0.0522613 0.0547351 0.0529775 0.0547886 0.0522271 0.0530509 0.0547267 0.0523224 0.0529671 0.0547878 0.0528592 0.0521099 0.0547651 0.0530428 0.0547886 0.0521503 0.0531144 0.0547862 0.0530661 0.0521784 0.0548257 0.0529979 0.0548116 0.0523794 0.052835 0.0527808 0.0548766 0.0526626 0.0548268 0.0527222 0.0548516 0.0528627 0.0548396 0.0529166 0.0527163 0.0548767 0.052769 0.053127 0.0548904 0.0531335 0.0547279 0.05312 0.0531724 0.0547982 0.0547641 0.053135 0.0530433 0.0547508 0.0531681 0.0548061 0.0531518 0.0532101 0.0548106 0.0530047 0.0531009 0.0547619 0.0523238 0.0530184 0.0548364 0.0530027 0.0530328 0.0529095 0.0547542 0.0524441 0.0547581 0.0529499 0.0529701 0.0522232 0.0548433 0.0529211 0.052819 0.0548112 0.0527619 0.0528701 0.0548138 0.0530138 0.0523496 0.0529121 0.0548587 0.0529267 0.0548678 0.0528037 0.0522698 0.0528449 0.0548796 0.0528148 0.0528356 0.0549051 0.0539908 0.0536846 0.0530322 0.0549053 0.0535896 0.0549424 0.0530345 0.0534893 0.0548952 0.0540728 0.0529268 0.0536442 0.0548593 0.0540575 0.0529036 0.0537332 0.0549065 0.0529697 0.0539048 0.0536015 0.054953 0.0539744 0.052879 0.0535341 0.0549189 0.0534516 0.0527846 0.0541267 0.0549469 0.0533689 0.0527767 0.0534601 0.0541926 0.0548589 0.0526775 0.0533776 0.0549009 0.054178 0.0527883 0.0533655 0.0548673 0.0540413 0.0526382 0.0537834 0.0549228 0.0541168 0.0526557 0.05493 0.0536689 0.0540975 0.0549477 0.0525481 0.0537036 0.0538286 0.0549154 0.053955 0.0526987 0.0537825 0.0549376 0.0539018 0.0549642 0.0537426 0.0527556 0.05375 0.0550032 0.0526541 0.0536869 0.0538135 0.0549587 0.053591 0.0538767 0.0527093 0.0550116 0.053531 0.0540246 0.0549656 0.052555 0.053435 0.054016 0.0550145 0.0534575 0.0524722 0.053944 0.0549961 0.0536162 0.0539014 0.0525594 0.0535281 0.0549958 0.0542644 0.0525479 0.0535252 0.0550233 0.0525221 0.0543373 0.0550467 0.0534399 0.0524126 0.0550553 0.0543025 0.0532788 0.05502