# vtk DataFile Version 3.0
vtk output
ASCII
DATASET UNSTRUCTURED_GRID
POINTS 44501 float
0 0 0
0.0144219 0 0
0.00647947 0.0130655 0
0 0.0123455 0
0 0 0
0.00647947 0.0130655 0
0.0144219 0 0
0.0165369 0 0
0.0204344 0.0107817 0
0.0141832 0.0165361 0
0.0104379 0.0168262 0
0.00647947 0.0130655 0
0 0.0123455 0
0.00647947 0.0130655 0
0.0104379 0.0168262 0
0.00684615 0.027884 0
0 0.0291909 0
0 0.0123455 0
0.0236822 0.0117137 0
0.0316157 0.00757108 0
0.0383477 0.0131137 0
0.036892 0.0180812 0
0.0273559 0.0226527 0
0.0236822 0.0117137 0
0.259786 0.967896 0
0.265813 0.97572 0
0.260775 0.985655 0
0.260203 0.985762 0
0.251911 0.981799 0
0.250743 0.972364 0
0.258354 0.967959 0
0.259786 0.967896 0
0.0141832 0.0165361 0
0.0204344 0.0107817 0
0.0236822 0.0117137 0
0.0273559 0.0226527 0
0.0253682 0.0269837 0
0.022049 0.0285856 0
0.0141832 0.0165361 0
0.0165369 0 0
0.0316211 0 0
0.0316157 0.00757108 0
0.0236822 0.0117137 0
0.0204344 0.0107817 0
0.0165369 0 0
0.265813 0.97572 0
0.271192 0.975212 0
0.278059 0.98718 0
0.271067 0.993048 0
0.260775 0.985655 0
0.265813 0.97572 0
0.337362 0.438808 0
0.345881 0.433343 0
0.351957 0.437309 0
0.352061 0.444842 0
0.341803 0.448804 0
0.337552 0.444916 0
0.337362 0.438808 0
0.00684615 0.027884 0
0.0104379 0.0168262 0
0.0141832 0.0165361 0
0.022049 0.0285856 0
0.0214349 0.0293754 0
0.0116219 0.0309487 0
0.00684615 0.027884 0
0.278284 0.969199 0
0.283687 0.972388 0
0.287339 0.981129 0
0.283515 0.986728 0
0.278059 0.98718 0
0.271192 0.975212 0
0.278284 0.969199 0
0.919929 0.368761 0
0.924292 0.367377 0
0.930997 0.370482 0
0.931515 0.376814 0
0.927551 0.381145 0
0.919983 0.380541 0
0.917984 0.377865 0
0.919929 0.368761 0
0 0.0291909 0
0.00684615 0.027884 0
0.0116219 0.0309487 0
0.0105338 0.0401276 0
0 0.04176 0
0 0.0291909 0
0.351957 0.437309 0
0.360024 0.432951 0
0.366329 0.438061 0
0.366874 0.44339 0
0.35678 0.448874 0
0.352061 0.444842 0
0.351957 0.437309 0
0.243054 0.986335 0
0.251911 0.981799 0
0.260203 0.985762 0
0.252049 1 0
0.249826 1 0
0.242863 0.987205 0
0.243054 0.986335 0
0.0214349 0.0293754 0
0.022049 0.0285856 0
0.0253682 0.0269837 0
0.0334359 0.0315012 0
0.0329229 0.0422138 0
0.0328059 0.0423275 0
0.02256 0.0392574 0
0.0214349 0.0293754 0
0.260775 0.985655 0
0.271067 0.993048 0
0.271861 1 0
0.252049 1 0
0.260203 0.985762 0
0.260775 0.985655 0
0.278059 0.98718 0
0.283515 0.986728 0
0.290048 1 0
0.271861 1 0
0.271067 0.993048 0
0.278059 0.98718 0
0.295927 0.964519 0
0.299445 0.965906 0
0.300145 0.967188 0
0.295871 0.981548 0
0.287339 0.981129 0
0.283687 0.972388 0
0.295927 0.964519 0
0.300145 0.967188 0
0.310091 0.971968 0
0.308511 0.984562 0
0.30771 0.985097 0
0.298965 0.984427 0
0.295871 0.981548 0
0.300145 0.967188 0
0.283515 0.986728 0
0.287339 0.981129 0
0.295871 0.981548 0
0.298965 0.984427 0
0.292379 1 0
0.290048 1 0
0.283515 0.986728 0
0.298965 0.984427 0
0.30771 0.985097 0
0.307322 1 0
0.292379 1 0
0.298965 0.984427 0
0.307167 0.941961 0
0.311936 0.940166 0
0.320122 0.944539 0
0.317109 0.955553 0
0.314918 0.956866 0
0.307573 0.95502 0
0.304589 0.950043 0
0.307167 0.941961 0
0.339555 0.93717 0
0.339632 0.943733 0
0.332184 0.947909 0
0.322454 0.943539 0
0.327645 0.931418 0
0.339555 0.93717 0
0.320122 0.944539 0
0.322454 0.943539 0
0.332184 0.947909 0
0.331712 0.95871 0
0.329499 0.960677 0
0.317109 0.955553 0
0.320122 0.944539 0
0.939409 0.328608 0
0.940257 0.321155 0
0.946042 0.318107 0
0.949467 0.319271 0
0.952731 0.328133 0
0.950615 0.331732 0
0.945349 0.33301 0
0.939409 0.328608 0
0.317109 0.955553 0
0.329499 0.960677 0
0.329236 0.967396 0
0.321798 0.972246 0
0.315072 0.969332 0
0.314918 0.956866 0
0.317109 0.955553 0
0.35678 0.448874 0
0.366874 0.44339 0
0.371762 0.447487 0
0.372353 0.453294 0
0.364147 0.459294 0
0.357249 0.454783 0
0.35678 0.448874 0
0.329499 0.960677 0
0.331712 0.95871 0
0.343022 0.95967 0
0.345825 0.965272 0
0.342402 0.972665 0
0.338526 0.97376 0
0.329236 0.967396 0
0.329499 0.960677 0
0.0316211 0 0
0.0442424 0 0
0.0429944 0.0114844 0
0.0383477 0.0131137 0
0.0316157 0.00757108 0
0.0316211 0 0
0.332184 0.947909 0
0.339632 0.943733 0
0.347371 0.949404 0
0.343022 0.95967 0
0.331712 0.95871 0
0.332184 0.947909 0
0.949467 0.319271 0
0.957106 0.314839 0
0.962637 0.317216 0
0.964631 0.323153 0
0.962583 0.326571 0
0.952731 0.328133 0
0.949467 0.319271 0
0.356049 0.470577 0
0.349359 0.466259 0
0.349407 0.460302 0
0.357249 0.454783 0
0.364147 0.459294 0
0.364716 0.465173 0
0.356049 0.470577 0
0.339555 0.93717 0
0.345214 0.931792 0
0.353658 0.932426 0
0.355163 0.935184 0
0.348076 0.949272 0
0.347371 0.949404 0
0.339632 0.943733 0
0.339555 0.93717 0
0.952731 0.328133 0
0.962583 0.326571 0
0.965548 0.335094 0
0.958445 0.341258 0
0.957014 0.341198 0
0.950615 0.331732 0
0.952731 0.328133 0
0.0419999 0.0264731 0
0.036892 0.0180812 0
0.0383477 0.0131137 0
0.0429944 0.0114844 0
0.0489137 0.014055 0
0.0505093 0.0215869 0
0.0419999 0.0264731 0
0.341803 0.448804 0
0.352061 0.444842 0
0.35678 0.448874 0
0.357249 0.454783 0
0.349407 0.460302 0
0.342102 0.454908 0
0.341803 0.448804 0
0.93182 0.332198 0
0.939409 0.328608 0
0.945349 0.33301 0
0.941778 0.343531 0
0.931755 0.340548 0
0.93182 0.332198 0
0.355163 0.935184 0
0.36425 0.939733 0
0.361236 0.951933 0
0.358029 0.953795 0
0.348076 0.949272 0
0.355163 0.935184 0
0.0539196 0 0
0.0653653 0 0
0.0654221 0.0125609 0
0.0632416 0.013563 0
0.0546181 0.0101091 0
0.0539196 0 0
0.928823 0.342909 0
0.931755 0.340548 0
0.941778 0.343531 0
0.942307 0.3445 0
0.939201 0.353183 0
0.934251 0.355063 0
0.929539 0.35337 0
0.928823 0.342909 0
0.0489137 0.014055 0
0.0546181 0.0101091 0
0.0632416 0.013563 0
0.0598899 0.022283 0
0.0548449 0.0242579 0
0.0505093 0.0215869 0
0.0489137 0.014055 0
0.364147 0.459294 0
0.372353 0.453294 0
0.379314 0.457833 0
0.379921 0.462659 0
0.371016 0.469622 0
0.364716 0.465173 0
0.364147 0.459294 0
0.375279 0.944188 0
0.375809 0.955413 0
0.374394 0.956419 0
0.361236 0.951933 0
0.36425 0.939733 0
0.368583 0.938448 0
0.375279 0.944188 0
0.0429944 0.0114844 0
0.0442424 0 0
0.0539196 0 0
0.0546181 0.0101091 0
0.0489137 0.014055 0
0.0429944 0.0114844 0
0.945349 0.33301 0
0.950615 0.331732 0
0.957014 0.341198 0
0.951504 0.346313 0
0.942307 0.3445 0
0.941778 0.343531 0
0.945349 0.33301 0
0.315994 0.48536 0
0.314692 0.480541 0
0.321716 0.472212 0
0.327388 0.473736 0
0.330636 0.480369 0
0.323151 0.488609 0
0.315994 0.48536 0
0.348076 0.949272 0
0.358029 0.953795 0
0.357687 0.964769 0
0.345825 0.965272 0
0.343022 0.95967 0
0.347371 0.949404 0
0.348076 0.949272 0
0.976305 0.323385 0
0.977521 0.322577 0
0.986823 0.329724 0
0.983579 0.338434 0
0.973136 0.337048 0
0.976305 0.323385 0
0.0334359 0.0315012 0
0.0414636 0.0284317 0
0.0469382 0.0366876 0
0.0452421 0.0400891 0
0.0329229 0.0422138 0
0.0334359 0.0315012 0
0.308276 0.466353 0
0.318656 0.466181 0
0.321716 0.472212 0
0.314692 0.480541 0
0.305255 0.476395 0
0.308276 0.466353 0
0.962637 0.317216 0
0.970209 0.309497 0
0.972554 0.309732 0
0.977662 0.322056 0
0.977521 0.322577 0
0.976305 0.323385 0
0.964631 0.323153 0
0.962637 0.317216 0
0.036892 0.0180812 0
0.0419999 0.0264731 0
0.0414636 0.0284317 0
0.0334359 0.0315012 0
0.0253682 0.0269837 0
0.0273559 0.0226527 0
0.036892 0.0180812 0
0.327388 0.473736 0
0.334457 0.466222 0
0.342431 0.470595 0
0.342383 0.478584 0
0.336677 0.482223 0
0.330636 0.480369 0
0.327388 0.473736 0
0.358029 0.953795 0
0.361236 0.951933 0
0.374394 0.956419 0
0.3714 0.965509 0
0.358821 0.965942 0
0.357687 0.964769 0
0.358029 0.953795 0
0.965548 0.335094 0
0.962583 0.326571 0
0.964631 0.323153 0
0.976305 0.323385 0
0.973136 0.337048 0
0.973001 0.337123 0
0.965548 0.335094 0
0.0414636 0.0284317 0
0.0419999 0.0264731 0
0.0505093 0.0215869 0
0.0548449 0.0242579 0
0.0539846 0.0342925 0
0.0469382 0.0366876 0
0.0414636 0.0284317 0
0.310091 0.971968 0
0.315072 0.969332 0
0.321798 0.972246 0
0.322958 0.981368 0
0.317469 0.985677 0
0.308511 0.984562 0
0.310091 0.971968 0
0.308457 0.492915 0
0.315994 0.48536 0
0.323151 0.488609 0
0.324802 0.493356 0
0.317251 0.502152 0
0.314066 0.501471 0
0.308457 0.492915 0
0.987665 0.329446 0
0.993872 0.31824 0
1 0.317749 0
1 0.334585 0
0.987665 0.329446 0
0.321798 0.972246 0
0.329236 0.967396 0
0.338526 0.97376 0
0.335181 0.981235 0
0.329392 0.983728 0
0.322958 0.981368 0
0.321798 0.972246 0
0.0539846 0.0342925 0
0.0548449 0.0242579 0
0.0598899 0.022283 0
0.0682541 0.0285264 0
0.0680731 0.0303281 0
0.0587969 0.0371053 0
0.0539846 0.0342925 0
0.977521 0.322577 0
0.977662 0.322056 0
0.987637 0.313448 0
0.993872 0.31824 0
0.987665 0.329446 0
0.986823 0.329724 0
0.977521 0.322577 0
0.30771 0.985097 0
0.308511 0.984562 0
0.317469 0.985677 0
0.322169 1 0
0.307322 1 0
0.30771 0.985097 0
0.320498 0.506905 0
0.317251 0.502152 0
0.324802 0.493356 0
0.332289 0.496402 0
0.33282 0.506409 0
0.330124 0.508505 0
0.320498 0.506905 0
0.973001 0.337123 0
0.973136 0.337048 0
0.983579 0.338434 0
0.985503 0.341837 0
0.977408 0.351611 0
0.9709 0.348822 0
0.973001 0.337123 0
0.322958 0.981368 0
0.329392 0.983728 0
0.331018 1 0
0.322169 1 0
0.317469 0.985677 0
0.322958 0.981368 0
0 0.04176 0
0.0105338 0.0401276 0
0.0157645 0.0441825 0
0.00876624 0.0522468 0
0 0.0500583 0
0 0.04176 0
0.958445 0.341258 0
0.965548 0.335094 0
0.973001 0.337123 0
0.9709 0.348822 0
0.966461 0.350689 0
0.958445 0.341258 0
0.329392 0.983728 0
0.335181 0.981235 0
0.343037 0.990145 0
0.339502 1 0
0.331018 1 0
0.329392 0.983728 0
0.0116219 0.0309487 0
0.0214349 0.0293754 0
0.02256 0.0392574 0
0.0170768 0.0441893 0
0.0157645 0.0441825 0
0.0105338 0.0401276 0
0.0116219 0.0309487 0
0.332289 0.496402 0
0.338207 0.49272 0
0.344256 0.494721 0
0.346287 0.503163 0
0.341569 0.508218 0
0.33282 0.506409 0
0.332289 0.496402 0
1 0.337948 0
1 0.353591 0
0.991117 0.352771 0
0.987919 0.342945 0
1 0.337948 0
0.338526 0.97376 0
0.342402 0.972665 0
0.35169 0.98031 0
0.351481 0.98637 0
0.343037 0.990145 0
0.335181 0.981235 0
0.338526 0.97376 0
0.0170768 0.0441893 0
0.02256 0.0392574 0
0.0328059 0.0423275 0
0.0327448 0.0474668 0
0.0235712 0.0531847 0
0.0170768 0.0441893 0
0.986823 0.329724 0
[...]
CELL_DATA 6400
FIELD FieldData 3
weight 1 6400 float
 0.0536109 0.05368 0.0536447 0.0538381 0.0488049 0.0537818 0.0537429 0.0487815 0.0549871 0.0537377 0.0488712 0.0537072 0.0536968 0.0550414 0.0486124 0.0538803 0.048582 0.0486526 0.0490182 0.0490159 0.0487847 0.0487749 0.0494125 0.0496303 0.0494532 0.0539076 0.0492661 0.0549813 0.0493366 0.0538391 0.0495123 0.0538583 0.0548609 0.0497013 0.0537772 0.053934 0.0549216 0.0539004 0.0496914 0.0539845 0.05384 0.0539989 0.0549198 0.0496911 0.0539136 0.0538019 0.0545816 0.0494896 0.0536223 0.0539575 0.0546106 0.0537838 0.0539014 0.0546835 0.0495282 0.0537156 0.0539974 0.0490489 0.0544455 0.0535343 0.0491445 0.0540843 0.0536232 0.0488328 0.054414 0.0535578 0.0489339 0.0537478 0.0536605 0.0489921 0.0537804 0.0544666 0.0534141 0.0491166 0.05389 0.0534998 0.0545497 0.0493011 0.0537614 0.0546683 0.0538468 0.0537203 0.0493314 0.0547349 0.053738 0.0489399 0.0539104 0.0489684 0.0536747 0.0539689 0.0547423 0.0491369 0.0535564 0.0547943 0.0540025 0.054079 0.0535252 0.0506007 0.0545399 0.0541741 0.0536257 0.0546085 0.0504754 0.0540634 0.0536122 0.0505992 0.0546032 0.0541201 0.0534822 0.0541785 0.0503059 0.0535081 0.0554931 0.0533303 0.0503958 0.0542395 0.0534618 0.0554242 0.0540513 0.0504118 0.0533993 0.0541604 0.0554935 0.0506489 0.0533618 0.0542442 0.0555311 0.0542185 0.0533562 0.0506246 0.0532317 0.054123 0.0532493 0.0553406 0.050503 0.054199 0.0540912 0.0547747 0.0504661 0.0554079 0.0543126 0.055448 0.0501565 0.0542453 0.0547285 0.0555339 0.0502441 0.0542937 0.0546565 0.0555742 0.0502202 0.0544756 0.0546504 0.0544106 0.0500058 0.0556118 0.054372 0.0500287 0.055463 0.0546393 0.0543245 0.0503243 0.0555461 0.054579 0.0543648 0.0502952 0.0554788 0.0544787 0.054406 0.0500749 0.0553215 0.0545717 0.0501177 0.0545032 0.0552596 0.0544217 0.0552711 0.0542523 0.0507916 0.0553698 0.0545166 0.0541628 0.0507742 0.0552147 0.0545503 0.054276 0.0551532 0.0507351 0.0544011 0.05438 0.0552079 0.0505765 0.0544715 0.0543405 0.0553987 0.0504487 0.054444 0.0543296 0.0553177 0.0543433 0.050609 0.0553172 0.0545166 0.0544227 0.0553989 0.054468 0.050708 0.0544541 0.0552403 0.0506714 0.0544784 0.0551964 0.054542 0.0543893 0.0555691 0.0545214 0.0507731 0.0543292 0.0544917 0.0505775 0.0556357 0.0543277 0.0556337 0.0505208 0.0546113 0.0542674 0.0554892 0.0538093 0.050467 0.0541357 0.055562 0.0538607 0.0504047 0.0541808 0.055491 0.0539629 0.0504016 0.0542117 0.0556334 0.0540226 0.0502808 0.0556018 0.0538531 0.0540223 0.0501177 0.0539132 0.0556786 0.0543785 0.050231 0.0540159 0.0543516 0.0500853 0.0540739 0.0556848 0.0541843 0.0541374 0.0555524 0.0542506 0.0501428 0.0542855 0.055604 0.0542723 0.0503366 0.0555193 0.0541877 0.0542493 0.0503032 0.055413 0.0541154 0.0542484 0.0554028 0.0502044 0.0541255 0.0543226 0.0553192 0.0542784 0.0540737 0.0553126 0.0500758 0.0538787 0.0541837 0.0552218 0.0539849 0.0498663 0.055312 0.0539463 0.0540061 0.0497353 0.0554682 0.0540573 0.0540348 0.0498142 0.0553839 0.05408 0.0540473 0.0494771 0.0540073 0.0554358 0.053904 0.0539082 0.0495793 0.0552922 0.0540729 0.0540805 0.0498957 0.0553408 0.0541802 0.0541941 0.0498185 0.0541556 0.0550363 0.0539761 0.0499897 0.0542395 0.0550927 0.0498222 0.0540111 0.0543319 0.0550279 0.049723 0.0539449 0.0549773 0.0541875 0.0495854 0.0539375 0.0548618 0.0542907 0.0495945 0.0538439 0.0549194 0.0492586 0.0542652 0.0537755 0.055142 0.0493003 0.0538744 0.0550824 0.0543976 0.049445 0.05378 0.0490271 0.0551144 0.0543668 0.0490508 0.0537195 0.0549657 0.0544261 0.0492479 0.0550148 0.054363 0.0543592 0.0493931 0.0549983 0.0545085 0.0542264 0.049349 0.0547962 0.0544247 0.0491239 0.0542286 0.0548466 0.054463 0.0491451 0.0545614 0.0542189 0.0499333 0.0546021 0.0545718 0.0542986 0.0499073 0.0545946 0.0546713 0.05413 0.0497146 0.0540723 0.0547224 0.0497346 0.054751 0.054877 0.0540635 0.0497966 0.0548942 0.0546583 0.054083 0.0546819 0.050045 0.0547823 0.0539152 0.0546343 0.0499727 0.0547567 0.053944 0.0547798 0.0498762 0.0539307 0.0548035 0.0543856 0.0498701 0.0551192 0.0544581 0.0541215 0.049751 0.0552156 0.0545936 0.0540276 0.0496635 0.0552169 0.0545504 0.0539852 0.0550204 0.0494012 0.0545049 0.0550253 0.0495259 0.054494 0.0540077 0.0551221 0.0493978 0.0546271 0.0551952 0.0495343 0.0539314 0.0545639 0.0492251 0.0538113 0.0552384 0.0491934 0.0547013 0.0551068 0.0537943 0.0496322 0.05472 0.055116 0.0538505 0.0494402 0.0548014 0.054915 0.0495429 0.0549273 0.0537721 0.0547827 0.0492029 0.0549375 0.0536327 0.054706 0.0493507 0.0548203 0.0492059 0.0548668 0.0535342 0.0548322 0.0545603 0.0536887 0.0550206 0.0544904 0.0547234 0.0538897 0.0549306 0.0546239 0.0546828 0.0538222 0.0545598 0.0550164 0.0546315 0.0537683 0.0547078 0.0546393 0.0537696 0.0548435 0.0546501 0.0546218 0.0537101 0.0545742 0.0548339 0.054692 0.0535673 0.0547252 0.0536829 0.0547036 0.0549214 0.0547853 0.0547019 0.0536081 0.056225 0.054876 0.0547046 0.0548656 0.0536052 0.0561865 0.0547875 0.0562229 0.0545894 0.0535545 0.0548126 0.0561644 0.0545989 0.0534815 0.0548912 0.0562031 0.0545964 0.0546194 0.0562503 0.05345 0.0547048 0.0544951 0.0536177 0.0562617 0.0547602 0.0544394 0.056221 0.0535992 0.0546618 0.0562365 0.0545359 0.0562446 0.0534723 0.0561698 0.054815 0.0545239 0.0561817 0.0534274 0.0561459 0.0547623 0.0543578 0.0561458 0.0549472 0.0534743 0.0562143 0.0543102 0.0549202 0.0562279 0.0533413 0.0548395 0.0544084 0.0562129 0.0534065 0.0561906 0.0544965 0.0550355 0.0562519 0.0533661 0.0545022 0.055 0.0562612 0.0548766 0.0543941 0.0532251 0.0543953 0.056255 0.0549752 0.0532768 0.0543106 0.0562444 0.0550462 0.0532747 0.0543013 0.0562394 0.0551291 0.0542897 0.0562502 0.053082 0.0549561 0.0545962 0.0562458 0.0550506 0.0538763 0.0562372 0.0545916 0.054979 0.0562274 0.0537369 0.054973 0.0562165 0.0544887 0.0550773 0.0538654 0.0561924 0.0543575 0.0550786 0.056204 0.0538748 0.0544859 0.0551546 0.056217 0.0551279 0.056237 0.0537418 0.054576 0.0551726 0.0562263 0.0535842 0.0551986 0.0545427 0.0562002 0.0537096 0.0552731 0.0561289 0.0544149 0.0561053 0.0552513 0.0537266 0.0560942 0.0543285 0.0552421 0.0560659 0.0534628 0.0544364 0.0561693 0.0552915 0.0535594 0.0544707 0.0561712 0.0553544 0.0536083 0.0561375 0.0550943 0.0543006 0.0561428 0.0535366 0.0550937 0.0560424 0.0543776 0.0536026 0.056064 0.0551831 0.0543703 0.0534728 0.0560064 0.0551777 0.0542521 0.0559633 0.0542637 0.0533439 0.0551539 0.0560117 0.0536827 0.0552457 0.0541816 0.0561109 0.0537627 0.0552636 0.0560939 0.0541543 0.0534582 0.0560663 0.0553152 0.0542259 0.0536186 0.0560536 0.0541931 0.0554269 0.0534521 0.0560207 0.0541249 0.0553721 0.0536149 0.0561908 0.0540861 0.055366 0.0535341 0.0561773 0.0542629 0.055326 0.0561441 0.0533809 0.0542083 0.05546 0.0561748 0.0534127 0.0541662 0.0554138 0.0561851 0.0532762 0.0540477 0.0548208 0.0561683 0.05337 0.0541511 0.0561412 0.0532639 0.0547275 0.056115 0.054073 0.0533244 0.0548521 0.0561092 0.0542114 0.0531069 0.0549587 0.0560808 0.0541971 0.0549099 0.0534231 0.0561159 0.0541079 0.0548539 0.0541085 0.0560708 0.0534036 0.0550178 0.053998 0.0532598 0.0562446 0.0549127 0.053995 0.0533309 0.0550143 0.0562493 0.0533182 0.0539476 0.0550764 0.0562371 0.0532064 0.053899 0.055057 0.0562432 0.0532463 0.0551436 0.0539441 0.0562575 0.0531514 0.0551204 0.0562417 0.0538349 0.053131 0.0549455 0.0562265 0.0530925 0.0538047 0.0562259 0.0548591 0.0538697 0.0531179 0.0549529 0.0562071 0.0530098 0.0539941 0.0562121 0.0550277 0.0530611 0.0562398 0.0538896 0.0549564 0.0562225 0.0532237 0.0537637 0.0562031 0.0548997 0.0531684 0.0537435 0.0549944 0.0529615 0.0562926 0.0540907 0.0550718 0.053099 0.0539644 0.0562639 0.0551204 0.0530333 0.0540773 0.055095 0.0562684 0.052978 0.0539877 0.0551866 0.0563153 0.0538818 0.0529295 0.0551523 0.0529792 0.0540407 0.0562968 0.0529404 0.0552651 0.0539986 0.0563129 0.0528976 0.0527675 0.0551986 0.0562871 0.0538664 0.0562572 0.0528236 0.0552207 0.0539461 0.0528322 0.0552553 0.0562544 0.0538484 0.0527057 0.0562365 0.0551737 0.0526655 0.0539144 0.0562787 0.0553033 0.0537862 0.0534704 0.0552037 0.0562802 0.0538877 0.0553376 0.0532983 0.0537743 0.0561854 0.0553678 0.0537634 0.0561708 0.0552897 0.0532974 0.0537697 0.0561488 0.0554223 0.0532634 0.0536424 0.0561413 0.0553839 0.0561739 0.0536501 0.0531467 0.0561588 0.0537203 0.0531095 0.0555023 0.0561124 0.053662 0.0530851 0.0554072 0.0560638 0.053213 0.053596 0.0554556 0.056081 0.0554953 0.0529665 0.0561365 0.0536414 0.0561242 0.0531309 0.0552396 0.0560856 0.0535273 0.0553149 0.0530292 0.0560923 0.0552641 0.0529293 0.0560633 0.0545175 0.0553913 0.0531294 0.0562163 0.0553247 0.054379 0.0561921 0.0531593 0.0553444 0.0561914 0.0529678 0.0553936 0.0544285 0.0561545 0.0554764 0.056228 0.0530486 0.0544697 0.0554351 0.0562517 0.054269 0.0529146 0.05551 0.0562289 0.0542303 0.0529922 0.0561857 0.0555505 0.0543233 0.0561453 0.0528224 0.0554339 0.0561303 0.0543813 0.0529779 0.0560948 0.0554575 0.0542848 0.0528942 0.056192 0.0555057 0.052815 0.0543175 0.0561565 0.0541767 0.0555606 0.0528213 0.0561085 0.054132 0.0539308 0.0527391 0.0559045 0.0539441 0.0542272 0.0559772 0.0525755 0.0540431 0.0541583 0.0558504 0.0526679 0.0558956 0.0541157 0.054102 0.0539696 0.0560016 0.0528005 0.0540538 0.0541431 0.0559577 0.0527746 0.0539443 0.0540691 0.0559229 0.0558172 0.0539944 0.0528553 0.0542238 0.0558196 0.0540652 0.0528031 0.0558791 0.054415 0.0540176 0.0557562 0.0526317 0.0539459 0.0543281 0.0557234 0.0526873 0.0558864 0.0543272 0.0540552 0.055848 0.0526962 0.0542405 0.0539099 0.0557865 0.0525262 0.0544143 0.0538362 0.0557894 0.0525307 0.0539742 0.0542362 0.0560228 0.0540546 0.052563 0.0541481 0.0560527 0.0525833 0.0560063 0.0542373 0.054202 0.0523924 0.0559587 0.0540615 0.0524089 0.0559622 0.0541636 0.0539653 0.0526678 0.0540987 0.054132 0.0560365 0.0543407 0.0524551 0.0541384 0.056052 0.0542653 0.052535 0.0544537 0.055987 0.0541351 0.052471 0.0543669 0.0558739 0.0540287 0.0559189 0.0542285 0.0524476 0.0558173 0.0542884 0.0540029 0.0523537 0.0559075 0.0544706 0.0539812 0.0559175 0.0524162 0.0543972 0.0522407 0.053864 0.0558607 0.0545246 0.0558762 0.052264 0.053904 0.054463 0.0556373 0.0523073 0.0538963 0.0556485 0.0546638 0.0555885 0.053999 0.0521386 0.0546101 0.0555486 0.0539292 0.0521214 0.0545697 0.0557197 0.0557245 0.053781 0.0544821 0.0520228 0.0556721 0.0519798 0.0538284 0.0556089 0.0546591 0.052157 0.0554748 0.054702 0.055476 0.0537359 0.0518231 0.0547427 0.0553807 0.0519874 0.0538427 0.0553879 0.0518291 0.0548253 0.0537686 0.0555473 0.0556201 0.0522888 0.0547805 0.0537322 0.0554673 0.054737 0.052265 0.0536593 0.055761 0.0548204 0.052411 0.0557459 0.0535919 0.0548543 0.0521282 0.0556938 0.0545947 0.0535288 0.0521452 0.0558135 0.0545176 0.055756 0.0520247 0.0536893 0.0546734 0.0556976 0.0523032 0.0545424 0.055698 0.0538892 0.051693 0.0556272 0.0545932 0.0538334 0.0516994 0.0555445 0.0547002 0.0537248 0.0518682 0.0555449 0.0546453 0.0537896 0.0515557 0.0547725 0.0554737 0.0535906 0.0548432 0.0517148 0.0556321 0.0537308 0.0548962 0.0515737 0.0555197 0.0538008 0.0549197 0.0519103 0.0555869 0.0537335 0.0547935 0.0520301 0.053533 0.056029 0.0547306 0.0536927 0.0521641 0.0560104 0.0548551 0.0536261 0.0559898 0.0517671 0.0535352 0.05492 0.0559592 0.0518944 0.0540306 0.0560053 0.0536292 0.0518501 0.0539447 0.0559663 0.0535839 0.0540287 0.0559708 0.0535029 0.0520136 0.0542102 0.0559353 0.0519984 0.055915 0.0541298 0.0534248 0.0539319 0.0558616 0.052473 0.0534668 0.0539969 0.05591 0.053433 0.0525893 0.0541415 0.0558657 0.0534183 0.0541343 0.0533376 0.0560589 0.0527573 0.0543034 0.0533495 0.0560522 0.0543114 0.0524653 0.0560118 0.0532506 0.0544061 0.0560541 0.0536614 0.0542461 0.0560199 0.0535822 0.0543747 0.0560013 0.0536091 0.05445 0.0559531 0.0534824 0.0559026 0.0534448 0.0523294 0.055858 0.0534733 0.0525197 0.0539034 0.0559488 0.0534615 0.0539541 0.0559856 0.0528192 0.0533785 0.0541653 0.0558871 0.0526905 0.0533127 0.0540464 0.055901 0.052809 0.0531922 0.0540878 0.0558186 0.0538716 0.0533086 0.0529518 0.0558084 0.0532549 0.0539067 0.0557538 0.0526782 0.0533917 0.0540075 0.0557012 0.05264 0.0532896 0.0558132 0.0540863 0.0557657 0.0528431 0.0532141 0.0542527 0.05574 0.0521874 0.0530835 0.0543461 0.055611 0.0523312 0.0531185 0.0556503 0.0532097 0.0523413 0.055554 0.0543689 0.0531417 0.0521711 0.0555497 0.0541853 0.0521963 0.0530231 0.0556888 0.054258 0.0522112 0.0556622 0.0529814 0.0556025 0.0525197 0.0530197 0.0557935 0.0524511 0.054349 0.0528916 0.0558435 0.0545747 0.0527078 0.0557348 0.0536997 0.0544866 0.0525564 0.0557814 0.0545021 0.0535766 0.0523371 0.0558366 0.055783 0.0524013 0.0537186 0.0546597 0.0557297 0.0524553 0.0536656 0.0556841 0.0545311 0.0546193 0.0556283 0.0525948 0.053438 0.0546438 0.0556472 0.0514473 0.0534171 0.0514266 0.0535508 0.0555888 0.0515652 0.0547185 0.0536366 0.0557243 0.0512898 0.0547806 0.0556734 0.0535343 0.0512577 0.0547779 0.0514049 0.055618 0.0536231 0.0514445 0.053391 0.0515648 0.056351 0.054843 0.0534804 0.0517049 0.0547077 0.0563468 0.0533703 0.0563477 0.0517899 0.0548537 0.0533288 0.0563737 0.0516486 0.0532954 0.0563723 0.0514817 0.0531612 0.0548449 0.0563118 0.0516512 0.0547689 0.0563135 0.0530676 0.0511259 0.0545138 0.0563458 0.0511188 0.0531714 0.0563071 0.0512617 0.0532717 0.0563686 0.0544604 0.0509771 0.0563405 0.0532064 0.0545736 0.050973 0.0532989 0.0563462 0.0546108 0.0511462 0.0531585 0.0564044 0.0544325 0.0510981 0.0530868 0.0513285 0.0564205 0.0530657 0.056399 0.0515551 0.053517 0.0544678 0.0564167 0.0516749 0.053518 0.0564276 0.0545563 0.0515166 0.0534983 0.0546877 0.0512848 0.0533868 0.056435 0.0533753 0.0512591 0.0564296 0.0533823 0.0564105 0.0547283 0.0513964 0.0563959 0.0535081 0.0547949 0.0513912 0.0563773 0.053463 0.0563812 0.0546467 0.052008 0.0564046 0.0532495 0.0519582 0.0564176 0.0531914 0.0520246 0.0563817 0.054786 0.0533228 0.0564043 0.0517922 0.0532493 0.0518485 0.0546978 0.0562684 0.0532564 0.0518865 0.0562774 0.0531109 0.0522245 0.0562422 0.0530891 0.0549048 0.05224 0.0563096 0.0531458 0.0550346 0.0563204 0.0523149 0.0530328 0.0549869 0.0562489 0.0520659 0.0531005 0.0562862 0.0550648 0.0519883 0.0530093 0.0562035 0.0529331 0.052206 0.0561699 0.0529172 0.0549272 0.0521357 0.056116 0.0529347 0.054973 0.0517046 0.0562566 0.055015 0.0530116 0.0518109 0.0562103 0.0526598 0.0561762 0.051747 0.0551079 0.0563549 0.0527796 0.0515524 0.0562914 0.0551672 0.052801 0.0516108 0.0563272 0.05522 0.0529085 0.0563579 0.0520271 0.0551718 0.052814 0.0551057 0.0563572 0.0528907 0.0552353 0.0519015 0.0529865 0.0563189 0.0527324 0.0563285 0.0521098 0.0526191 0.0562873 0.0552357 0.0517511 0.0527268 0.0561853 0.0549872 0.0562221 0.0524621 0.0518055 0.0550472 0.0562702 0.0519719 0.0562835 0.0525125 0.05623 0.0526296 0.054983 0.0530806 0.0562191 0.0522941 0.055052 0.0550523 0.0524445 0.0564297 0.05299 0.0551131 0.0564204 0.0522626 0.0551123 0.0531463 0.0564241 0.0525313 0.0564074 0.053154 0.0524423 0.055177 0.0525365 0.0563932 0.0528827 0.0552383 0.0523494 0.0564171 0.053008 0.0551202 0.0523624 0.0563935 0.0551727 0.0532917 0.056398 0.0522791 0.056411 0.053269 0.055182 0.0529585 0.0563951 0.0529423 0.0563794 0.0552341 0.0533986 0.0563847 0.0528108 0.0552911 0.0563749 0.0527864 0.0534372 0.0554179 0.0563668 0.0526545 0.0530768 0.0563378 0.0526347 0.0532241 0.0563695 0.0526084 0.0554106 0.0533608 0.052766 0.055351 0.0528355 0.056327 0.0527702 0.0552998 0.0527446 0.0552972 0.0563325 0.0528992 0.0526508 0.0562936 0.052569 0.0526533 0.0553591 0.0563309 0.0524959 0.0563677 0.0554162 0.0527859 0.0524602 0.0563191 0.0529967 0.0555159 0.0523529 0.056356 0.0532054 0.0523224 0.0562932 0.0530793 0.0522056 0.0562873 0.0554686 0.052897 0.052473 0.056372 0.0555271 0.0528782 0.0563469 0.0523964 0.0563139 0.0530998 0.0525028 0.0563405 0.0523217 0.0534832 0.0563125 0.055577 0.0563484 0.0523043 0.0535966 0.0554772 0.0563154 0.0555313 0.0562986 0.0521463 0.0536896 0.0562739 0.0555839 0.0534687 0.0562249 0.0533667 0.0562508 0.0538048 0.0562829 0.0555843 0.0532557 0.0562449 0.0552934 0.0537607 0.0533021 0.0562424 0.0553509 0.0563415 0.0531588 0.0539366 0.0563025 0.055418 0.0562708 0.0532255 0.0536506 0.055291 0.0562742 0.0530137 0.0536072 0.0554148 0.0531207 0.0561972 0.0553573 0.0537574 0.0531935 0.0562523 0.0530837 0.0562727 0.0537693 0.0553615 0.0562226 0.053136 0.0533323 0.0554725 0.0561831 0.0530439 0.0554774 0.0532819 0.0562064 0.0529174 0.0555309 0.0561626 0.0529688 0.0534469 0.0562202 0.0530945 0.0531485 0.052977 0.0555869 0.0533082 0.0561142 0.0529293 0.0554581 0.0561733 0.0533163 0.0528367 0.0561249 0.0555881 0.0534746 0.0528322 0.0528596 0.0560718 0.0535799 0.0529026 0.0560383 0.0555253 0.0536284 0.0527802 0.0561373 0.0549195 0.0527089 0.0534588 0.0560864 0.0549138 0.0527375 0.0560408 0.053421 0.0560897 0.0530045 0.0524952 0.0559383 0.0528804 0.055067 0.0559951 0.0526169 0.054984 0.0529377 0.0559039 0.0526525 0.0549168 0.052832 0.0560099 0.0549765 0.0527202 0.0559556 0.05271 0.0525434 0.0559585 0.0527964 0.0523888 0.0549955 0.0559069 0.0528404 0.0550453 0.0522978 0.0561388 0.0551096 0.0527481 0.0524585 0.0561771 0.0525917 0.0528027 0.0561172 0.0526454 0.0560683 0.0529697 0.0551573 0.0527767 0.0561611 0.052628 0.052631 0.0552081 0.056108 0.0527764 0.0550729 0.0526366 0.0560133 0.052798 0.0560645 0.0551174 0.052607 0.0523042 0.055955 0.0524587 0.0560059 0.0521727 0.052485 0.0560478 0.0551908 0.0522581 0.052509 0.0559391 0.0548592 0.0520697 0.0525759 0.0559888 0.0549464 0.0524238 0.052193 0.0558319 0.052382 0.0525706 0.0558446 0.0549333 0.0524776 0.0523467 0.0557818 0.0525718 0.055853 0.0547823 0.0522522 0.05577 0.052382 0.0526779 0.0557879 0.0523572 0.0527564 0.0556717 0.0548603 0.0524087 0.0556654 0.0525957 0.0525778 0.0548837 0.0557278 0.0526698 0.0529904 0.055022 0.0525158 0.0531368 0.0556057 0.0524197 0.0531357 0.0557126 0.0550601 0.0525482 0.0529515 0.0555981 0.0551575 0.052578 0.0529746 0.0556492 0.0549812 0.052391 0.0532491 0.0558831 0.0525154 0.0532884 0.0559037 0.0524229 0.0531236 0.0558261 0.0522739 0.0550055 0.0523559 0.0558788 0.0533594 0.0551005 0.0522598 0.0558127 0.0552596 0.0530218 0.0558201 0.0553291 0.0521807 0.0531638 0.0557629 0.0557039 0.0522253 0.0531156 0.055637 0.0552674 0.0520769 0.0556876 0.0527231 0.0553846 0.0522289 0.0557488 0.0527743 0.0552311 0.0523379 0.0557411 0.0528781 0.0553032 0.0556805 0.0521155 0.0525121 0.0556205 0.0520371 0.0553274 0.0527086 0.0521904 0.0561989 0.0553803 0.0520848 0.0561681 0.052673 0.0554439 0.0524405 0.056143 0.0528617 0.0561357 0.0523078 0.0529915 0.055515 0.0523081 0.0561906 0.0529381 0.0561132 0.0522993 0.0555784 0.0560808 0.0528018 0.0554453 0.0521536 0.0560832 0.0560539 0.0527725 0.052169 0.0508532 0.0559614 0.0555068 0.0508416 0.0522075 0.0560211 0.0555769 0.0560214 0.0521562 0.0509677 0.0555166 0.0559931 0.0507057 0.0520158 0.055197 0.0507917 0.0561444 0.0520217 0.0561058 0.0509151 0.0518691 0.0552674 0.0560549 0.0521426 0.0511385 0.0560969 0.0553488 0.051989 0.0510824 0.0552188 0.0560686 0.0519958 0.0512087 0.0561285 0.0518223 0.051292 0.0551613 0.0560517 0.0519461 0.0509686 0.0553081 0.0560344 0.0518293 0.0511234 0.055971 0.0554448 0.0505743 0.0520014 0.0559381 0.0505761 0.0559954 0.0507387 0.0518393 0.0554917 0.0559732 0.0504482 0.0518541 0.0504303 0.055553 0.0559115 0.0506118 0.0516869 0.0555657 0.0508422 0.055901 0.0516846 0.0508221 0.0559281 0.0509942 0.0538165 0.055887 0.0506703 0.0553672 0.0558007 0.0539407 0.0507315 0.0558655 0.0554499 0.0509007 0.0559401 0.0538318 0.0558749 0.0509591 0.0558179 0.0553931 0.0536686 0.0514427 0.0558215 0.0557359 0.055509 0.0537554 0.0515756 0.0554316 0.0556058 0.0512504 0.0535553 0.0556696 0.0512901 0.0536976 0.0557569 0.0514149 0.0553208 0.0536884 0.0555955 0.0513451 0.0553683 0.0556738 0.0555176 0.0536091 0.051623 0.0554078 0.0556089 0.0534016 0.0518665 0.0558747 0.0534914 0.0558038 0.0516449 0.0554454 0.0535343 0.0555107 0.0558314 0.0514788 0.0533302 0.055605 0.0557776 0.0514791 0.0554929 0.0535911 0.0556958 0.051675 0.055754 0.0536073 0.0511019 0.0555884 0.0556268 0.0535192 0.05567 0.0511025 0.0556626 0.0555886 0.053422 0.0512933 0.0555902 0.0557313 0.0534369 0.0509881 0.0556665 0.0533238 0.0511291 0.0556674 0.0533985 0.0556669 0.0511095 0.055