# vtk DataFile Version 3.0
vtk output
ASCII
DATASET UNSTRUCTURED_GRID
POINTS 44482 float
0 0 0
0.0193925 0 0
0.0191565 0.00236762 0
0.0132932 0.00964211 0
0 0.00536128 0
0 0 0
0 0.00536128 0
0.0132932 0.00964211 0
0.0133057 0.0179805 0
0 0.0175391 0
0 0.00536128 0
0.521008 0.0212082 0
0.528265 0.0124603 0
0.530474 0.012865 0
0.535735 0.021841 0
0.531747 0.0286923 0
0.521916 0.0259305 0
0.521008 0.0212082 0
0.0132932 0.00964211 0
0.0191565 0.00236762 0
0.0253593 0.0111823 0
0.0225425 0.0184316 0
0.0137259 0.018494 0
0.0133057 0.0179805 0
0.0132932 0.00964211 0
0.535735 0.021841 0
0.530474 0.012865 0
0.537268 0.00780028 0
0.546133 0.0131615 0
0.544947 0.0206499 0
0.535735 0.021841 0
0.0191565 0.00236762 0
0.0193925 0 0
0.0359771 0 0
0.0330263 0.00983821 0
0.0253593 0.0111823 0
0.0191565 0.00236762 0
0.0238496 0.525687 0
0.0251468 0.535841 0
0.0181125 0.539359 0
0.012771 0.536293 0
0.0124701 0.530445 0
0.0158077 0.525259 0
0.022626 0.524901 0
0.0238496 0.525687 0
0.537268 0.00780028 0
0.538062 0 0
0.549638 0 0
0.550199 0.00988078 0
0.546133 0.0131615 0
0.537268 0.00780028 0
0 0.0175391 0
0.0133057 0.0179805 0
0.0137259 0.018494 0
0.0119894 0.0266878 0
0.00914998 0.028964 0
0 0.0282021 0
0 0.0175391 0
0.525122 0 0
0.538062 0 0
0.537268 0.00780028 0
0.530474 0.012865 0
0.528265 0.0124603 0
0.524526 0.00738819 0
0.525122 0 0
0 0.539718 0
0.00713552 0.539727 0
0.011387 0.552352 0
0 0.556021 0
0 0.539718 0
0.0119894 0.0266878 0
0.0137259 0.018494 0
0.0225425 0.0184316 0
0.0259604 0.0223152 0
0.0234585 0.0323167 0
0.0119894 0.0266878 0
0.550199 0.00988078 0
0.549638 0 0
0.562291 0 0
0.563321 0.0082173 0
0.558235 0.0126047 0
0.550199 0.00988078 0
0.0225425 0.0184316 0
0.0253593 0.0111823 0
0.0330263 0.00983821 0
0.0370801 0.0149685 0
0.0344815 0.022305 0
0.0259604 0.0223152 0
0.0225425 0.0184316 0
0 0.556021 0
0.011387 0.552352 0
0.0140707 0.552975 0
0.0150984 0.563338 0
0.0119752 0.565087 0
0 0.561191 0
0 0.556021 0
0.546133 0.0131615 0
0.550199 0.00988078 0
0.558235 0.0126047 0
0.558943 0.0206276 0
0.556767 0.0232989 0
0.547234 0.023247 0
0.544947 0.0206499 0
0.546133 0.0131615 0
0.0234672 0.0323387 0
0.0234585 0.0323167 0
0.0259604 0.0223152 0
0.0344815 0.022305 0
0.0385179 0.0284162 0
0.0385353 0.0285732 0
0.0298705 0.0358949 0
0.0234672 0.0323387 0
0.532922 0.0323591 0
0.531747 0.0286923 0
0.535735 0.021841 0
0.544947 0.0206499 0
0.547234 0.023247 0
0.545506 0.033744 0
0.532922 0.0323591 0
0.0242047 0.550826 0
0.0301653 0.54716 0
0.0397742 0.551115 0
0.032243 0.562552 0
0.0265714 0.560388 0
0.0242047 0.550826 0
0.0359771 0 0
0.0436036 0 0
0.0451473 0.0129877 0
0.0370801 0.0149685 0
0.0330263 0.00983821 0
0.0359771 0 0
0.0436036 0 0
0.0523066 0 0
0.0554069 0.012641 0
0.0490601 0.0154969 0
0.0451473 0.0129877 0
0.0436036 0 0
0.547234 0.023247 0
0.556767 0.0232989 0
0.559307 0.0325076 0
0.556729 0.0367127 0
0.547345 0.0365965 0
0.545506 0.033744 0
0.547234 0.023247 0
0.0140707 0.552975 0
0.0195584 0.549518 0
0.0242047 0.550826 0
0.0265714 0.560388 0
0.0198399 0.564911 0
0.0150984 0.563338 0
0.0140707 0.552975 0
0.0523066 0 0
0.0676307 0 0
0.0606421 0.0141031 0
0.0554069 0.012641 0
0.0523066 0 0
0.0385353 0.0285732 0
0.0385179 0.0284162 0
0.0491333 0.0188103 0
0.0560009 0.0279961 0
0.0556262 0.0287715 0
0.0449748 0.0340523 0
0.0385353 0.0285732 0
0.508301 0.042833 0
0.508693 0.0400328 0
0.51642 0.0337148 0
0.524546 0.0406148 0
0.523189 0.0464415 0
0.512977 0.0488445 0
0.508301 0.042833 0
0.0445418 0.524782 0
0.0500135 0.53114 0
0.0498069 0.537036 0
0.042462 0.539066 0
0.0362806 0.535113 0
0.0369321 0.527147 0
0.0445418 0.524782 0
0.0370801 0.0149685 0
0.0451473 0.0129877 0
0.0490601 0.0154969 0
0.0491333 0.0188103 0
0.0385179 0.0284162 0
0.0344815 0.022305 0
0.0370801 0.0149685 0
0.0300788 0.538344 0
0.0362806 0.535113 0
0.042462 0.539066 0
0.0401602 0.551044 0
0.0397742 0.551115 0
0.0301653 0.54716 0
0.0300788 0.538344 0
0.51642 0.0337148 0
0.516543 0.0325018 0
0.521916 0.0259305 0
0.531747 0.0286923 0
0.532922 0.0323591 0
0.530821 0.037565 0
0.524546 0.0406148 0
0.51642 0.0337148 0
0.0590893 0.0397445 0
0.0556262 0.0287715 0
0.0560009 0.0279961 0
0.0605851 0.0257083 0
0.0685028 0.029805 0
0.069453 0.0332386 0
0.0653899 0.040239 0
0.0637682 0.0410269 0
0.0590893 0.0397445 0
0.0401602 0.551044 0
0.042462 0.539066 0
0.0498069 0.537036 0
0.0541164 0.540709 0
0.0543409 0.544286 0
0.0450115 0.553337 0
0.0401602 0.551044 0
0.0491333 0.0188103 0
0.0490601 0.0154969 0
0.0554069 0.012641 0
0.0606421 0.0141031 0
0.0624923 0.016066 0
0.0605851 0.0257083 0
0.0560009 0.0279961 0
0.0491333 0.0188103 0
0.499135 0.0476072 0
0.508301 0.042833 0
0.512977 0.0488445 0
0.511685 0.0563855 0
0.503258 0.0586561 0
0.498187 0.0522272 0
0.499135 0.0476072 0
0.0541164 0.540709 0
0.0623202 0.537199 0
0.0677605 0.54118 0
0.0695458 0.548336 0
0.0629853 0.552935 0
0.0543409 0.544286 0
0.0541164 0.540709 0
0 0.0282021 0
0.00914998 0.028964 0
0.0112955 0.0420834 0
0 0.0416512 0
0 0.0282021 0
0 0.0416512 0
0.0112955 0.0420834 0
0.0122513 0.0427869 0
0.00855451 0.0547511 0
0 0.0550128 0
0 0.0416512 0
0.512977 0.0488445 0
0.523189 0.0464415 0
0.526849 0.0521153 0
0.523999 0.0592492 0
0.516405 0.0610444 0
0.511685 0.0563855 0
0.512977 0.0488445 0
0.0500135 0.53114 0
0.0612282 0.524603 0
0.0635838 0.526478 0
0.0623202 0.537199 0
0.0541164 0.540709 0
0.0498069 0.537036 0
0.0500135 0.53114 0
0.0151556 0.0427966 0
0.0234672 0.0323387 0
0.0298705 0.0358949 0
0.0303317 0.0381186 0
0.0264161 0.0466439 0
0.0213978 0.0472722 0
0.0151556 0.0427966 0
0.530821 0.037565 0
0.532922 0.0323591 0
0.545506 0.033744 0
0.547345 0.0365965 0
0.544106 0.04508 0
0.539279 0.0465856 0
0.530821 0.037565 0
0.00914998 0.028964 0
0.0119894 0.0266878 0
0.0234585 0.0323167 0
0.0234672 0.0323387 0
0.0151556 0.0427966 0
0.0122513 0.0427869 0
0.0112955 0.0420834 0
0.00914998 0.028964 0
0.524546 0.0406148 0
0.530821 0.037565 0
0.539279 0.0465856 0
0.536165 0.0517878 0
0.526849 0.0521153 0
0.523189 0.0464415 0
0.524546 0.0406148 0
0.0351554 0.5677 0
0.032243 0.562552 0
0.0397742 0.551115 0
0.0401602 0.551044 0
0.0450115 0.553337 0
0.0471036 0.557058 0
0.0395912 0.568669 0
0.0351554 0.5677 0
0 0.0550128 0
0.00855451 0.0547511 0
0.0118014 0.0579804 0
0.0105533 0.0666637 0
0 0.0678446 0
0 0.0550128 0
0.547345 0.0365965 0
0.556729 0.0367127 0
0.560758 0.0451308 0
0.550355 0.0506038 0
0.544106 0.04508 0
0.547345 0.0365965 0
0.00855451 0.0547511 0
0.0122513 0.0427869 0
0.0151556 0.0427966 0
0.0213978 0.0472722 0
0.0189416 0.0568163 0
0.0118014 0.0579804 0
0.00855451 0.0547511 0
0.0520972 0.559493 0
0.0628243 0.553507 0
0.0665748 0.561898 0
0.061615 0.569566 0
0.0544508 0.569109 0
0.0520972 0.559493 0
0.536165 0.0517878 0
0.539279 0.0465856 0
0.544106 0.04508 0
0.550355 0.0506038 0
0.550609 0.0575796 0
0.540246 0.0611756 0
0.536165 0.0517878 0
0.0105533 0.0666637 0
0.0118014 0.0579804 0
0.0189416 0.0568163 0
0.0251169 0.0619897 0
0.0219821 0.0690122 0
0.0121315 0.0685144 0
0.0105533 0.0666637 0
0.0450115 0.553337 0
0.0543409 0.544286 0
0.0629853 0.552935 0
0.0628243 0.553507 0
0.0520972 0.559493 0
0.0471036 0.557058 0
0.0450115 0.553337 0
0.0189416 0.0568163 0
0.0213978 0.0472722 0
0.0264161 0.0466439 0
0.0322792 0.052722 0
0.0285753 0.0610347 0
0.0251169 0.0619897 0
0.0189416 0.0568163 0
0.523999 0.0592492 0
0.526849 0.0521153 0
0.536165 0.0517878 0
0.540246 0.0611756 0
0.539765 0.0622312 0
0.530227 0.0662026 0
0.523999 0.0592492 0
0.0298705 0.0358949 0
0.0385353 0.0285732 0
0.0449748 0.0340523 0
0.0452593 0.0401118 0
0.0410528 0.0430287 0
0.0303317 0.0381186 0
0.0298705 0.0358949 0
0.0743535 0.497465 0
0.0751771 0.497721 0
0.0797701 0.51004 0
0.0775056 0.512528 0
0.0754552 0.513302 0
0.0675561 0.511017 0
0.0634056 0.504299 0
0.0635519 0.503762 0
0.0743535 0.497465 0
0.550355 0.0506038 0
0.560758 0.0451308 0
0.564373 0.046965 0
0.565563 0.0498654 0
0.563303 0.0575693 0
0.553423 0.0595169 0
0.550609 0.0575796 0
0.550355 0.0506038 0
0.0303317 0.0381186 0
0.0410528 0.0430287 0
0.0387627 0.0516699 0
0.0322792 0.052722 0
0.0264161 0.0466439 0
0.0303317 0.0381186 0
0.572614 0.0216418 0
0.570827 0.0112923 0
0.577761 0.00613281 0
0.587025 0.0142001 0
0.586797 0.0156795 0
0.572614 0.0216418 0
0.0522354 0.0523587 0
0.0516632 0.0439269 0
0.0590893 0.0397445 0
0.0637682 0.0410269 0
0.0635478 0.0528236 0
0.0629996 0.0531427 0
0.0523687 0.0524923 0
0.0522354 0.0523587 0
0.563321 0.0082173 0
0.562291 0 0
0.578515 0 0
0.577761 0.00613281 0
0.570827 0.0112923 0
0.563321 0.0082173 0
0.0449748 0.0340523 0
0.0556262 0.0287715 0
0.0590893 0.0397445 0
0.0516632 0.0439269 0
0.0452593 0.0401118 0
0.0449748 0.0340523 0
0.0847979 0.49302 0
0.0860276 0.49378 0
0.0890793 0.50798 0
0.0886391 0.508481 0
0.0797701 0.51004 0
0.0751771 0.497721 0
0.0847979 0.49302 0
0.577761 0.00613281 0
0.578515 0 0
0.591326 0 0
0.590741 0.0104905 0
0.587025 0.0142001 0
0.577761 0.00613281 0
0.0285753 0.0610347 0
0.0322792 0.052722 0
0.0387627 0.0516699 0
0.0414063 0.0538623 0
0.0416397 0.0638721 0
0.0352239 0.0660821 0
0.0285753 0.0610347 0
0.558943 0.0206276 0
0.572406 0.0220927 0
0.573037 0.0257453 0
0.570046 0.0318843 0
0.559307 0.0325076 0
0.556767 0.0232989 0
0.558943 0.0206276 0
0.0675561 0.511017 0
0.0754552 0.513302 0
0.0710775 0.525995 0
0.0635838 0.526478 0
0.0612282 0.524603 0
0.0600119 0.52113 0
0.0675561 0.511017 0
0.558943 0.0206276 0
0.558235 0.0126047 0
0.563321 0.0082173 0
0.570827 0.0112923 0
0.572614 0.0216418 0
0.572406 0.0220927 0
0.558943 0.0206276 0
0.0387627 0.0516699 0
0.0410528 0.0430287 0
0.0452593 0.0401118 0
0.0516632 0.0439269 0
0.0522354 0.0523587 0
0.0414063 0.0538623 0
0.0387627 0.0516699 0
0.0710775 0.525995 0
0.0754552 0.513302 0
0.0775056 0.512528 0
0.0852166 0.524534 0
0.0788981 0.531726 0
0.0780073 0.531565 0
0.0710775 0.525995 0
0.543075 0.522134 0
0.549204 0.518121 0
0.555977 0.5214 0
0.555955 0.531449 0
0.548319 0.534694 0
0.543283 0.532219 0
0.543075 0.522134 0
0.0414063 0.0538623 0
0.0522354 0.0523587 0
0.0523687 0.0524923 0
0.0519598 0.06593 0
0.0470997 0.0669457 0
0.0416397 0.0638721 0
[...]
CELL_DATA 6400
FIELD FieldData 3
weight 1 6400 float
 0.0528047 0.0528092 0.0549127 0.0528936 0.0548796 0.0529413 0.0523348 0.0548311 0.0528288 0.0548372 0.0521719 0.0529408 0.0548164 0.0529933 0.0521105 0.0548696 0.053024 0.0549303 0.0523082 0.0530275 0.0531019 0.0549257 0.0522003 0.0531831 0.0531526 0.0549948 0.0525211 0.0530926 0.0524122 0.0549519 0.0532728 0.0524765 0.0531789 0.0550347 0.0525907 0.0528705 0.0529071 0.0550389 0.0526243 0.0530127 0.0549733 0.0529418 0.0550055 0.0523339 0.052954 0.0549776 0.0529914 0.0524699 0.0550188 0.0530467 0.0524873 0.0530732 0.0550524 0.0531119 0.0528746 0.0550003 0.0531181 0.0548323 0.0532956 0.0548032 0.0532156 0.0529755 0.0547782 0.0531749 0.0549021 0.0527805 0.0548571 0.053203 0.0528408 0.0544694 0.0532534 0.0529134 0.0548667 0.0533364 0.0548623 0.05444 0.0530189 0.0532389 0.0547681 0.05438 0.0533325 0.0547817 0.0531812 0.0544257 0.0547414 0.0533651 0.0533066 0.0543232 0.0532374 0.0548102 0.0533622 0.0548254 0.0542887 0.0530727 0.0532837 0.0543412 0.0547679 0.0534062 0.0529787 0.0543946 0.0549394 0.0535 0.0543884 0.0549077 0.0531568 0.053445 0.0549169 0.0542507 0.0534486 0.0527096 0.0543059 0.0549583 0.0535893 0.0527183 0.0535912 0.0542938 0.0549998 0.0528619 0.0535052 0.0549767 0.0545178 0.0527831 0.0548882 0.0535358 0.0526892 0.0549035 0.0545776 0.0536329 0.0525772 0.0527793 0.0529488 0.0528791 0.0530374 0.0530446 0.0528715 0.0544934 0.0529892 0.0533853 0.0520305 0.054858 0.0545511 0.0521894 0.0533768 0.052086 0.0548649 0.0544547 0.0534722 0.0518575 0.0549577 0.0534583 0.0544269 0.0519628 0.0549363 0.0519704 0.0543984 0.0533973 0.0534671 0.0549074 0.0519959 0.0545084 0.0520921 0.0535421 0.0551139 0.0544551 0.0522042 0.053603 0.0544633 0.0550754 0.0523711 0.0535355 0.054411 0.0550833 0.053618 0.0523595 0.0551504 0.0543629 0.0521074 0.0536891 0.0551152 0.0543665 0.0522771 0.0551462 0.0535684 0.0542993 0.0550883 0.0522695 0.0543365 0.0550638 0.052262 0.0537481 0.0542674 0.0550453 0.0518752 0.0542189 0.053644 0.0551259 0.0517785 0.0529957 0.054363 0.0551229 0.0518087 0.0530719 0.0543153 0.0550997 0.0519575 0.053188 0.0542653 0.0516574 0.0531458 0.0551978 0.0541848 0.0530348 0.0518681 0.0530209 0.0551781 0.0542618 0.0521187 0.0531244 0.0551814 0.0542099 0.0521898 0.0532105 0.0552095 0.0521442 0.0542443 0.0532343 0.055233 0.0519989 0.0533042 0.055218 0.0541826 0.052019 0.053398 0.0552407 0.0541757 0.0533572 0.0520769 0.0551517 0.0542014 0.0532786 0.0551618 0.0524966 0.0541089 0.0533932 0.0551901 0.052495 0.0530648 0.0540587 0.0526062 0.0552215 0.0531449 0.0541405 0.0526017 0.0531472 0.0551871 0.0541948 0.0524179 0.0540798 0.0532306 0.0540986 0.0550392 0.053172 0.0523686 0.0550034 0.0540423 0.0531041 0.0550433 0.0524873 0.0540165 0.0550972 0.0532511 0.0527168 0.0539318 0.0550841 0.0532771 0.052676 0.0550959 0.0539773 0.053397 0.0550088 0.0529079 0.0539071 0.0533655 0.0550085 0.0527683 0.0534502 0.0549529 0.0538086 0.0528272 0.0550519 0.0533884 0.0538279 0.0525842 0.0550478 0.0533149 0.0538852 0.0526912 0.0550079 0.0533158 0.0539731 0.0551362 0.0523354 0.0539148 0.0534577 0.0524581 0.0551634 0.0539876 0.0534866 0.05513 0.0522377 0.0538513 0.0534804 0.0551907 0.0522426 0.0535741 0.0538007 0.0551622 0.0523424 0.0551357 0.0541683 0.0534633 0.0550943 0.0524924 0.0542013 0.0536323 0.0550929 0.0535471 0.0541129 0.052619 0.0550683 0.0540137 0.0536321 0.0523603 0.0550328 0.0541034 0.0536494 0.0524891 0.0551376 0.0540614 0.053717 0.0525914 0.0540732 0.0551 0.0537947 0.054719 0.054094 0.0533627 0.0537254 0.0547062 0.054138 0.0537854 0.0534714 0.0546607 0.05396 0.0546731 0.0538369 0.0540104 0.0547666 0.0535459 0.0534508 0.0540272 0.0548031 0.0534878 0.0538983 0.0531875 0.0547373 0.0539548 0.0536236 0.0546232 0.0546122 0.0532969 0.0538506 0.0535496 0.0545544 0.0537891 0.053259 0.0545918 0.0535861 0.0546783 0.0537537 0.053362 0.0538494 0.0536751 0.0539145 0.0535449 0.0537957 0.0538522 0.0546969 0.0537176 0.0536468 0.0539076 0.0546126 0.053705 0.0546527 0.0537986 0.0534362 0.0548015 0.0538 0.0538706 0.0535217 0.0547993 0.053723 0.0531492 0.0537495 0.0547487 0.0531866 0.0544017 0.0548697 0.0538083 0.0530777 0.0548537 0.0538929 0.0544888 0.0548124 0.0531142 0.0536649 0.0547394 0.0544338 0.0534163 0.0536677 0.0546639 0.0543738 0.0533154 0.053808 0.054788 0.053731 0.0535031 0.0543042 0.0547243 0.0537227 0.0533552 0.0543372 0.0547485 0.0538377 0.0532471 0.0544664 0.0543083 0.0537494 0.0532442 0.0545033 0.0538011 0.0544698 0.0533075 0.054333 0.0538537 0.0543956 0.0539158 0.0545411 0.0542352 0.0534075 0.0539357 0.054278 0.0545458 0.0537248 0.0538742 0.0544901 0.0541317 0.0537682 0.0539634 0.0543882 0.0542051 0.0537031 0.0536097 0.0543269 0.0542046 0.0538023 0.0536509 0.0543542 0.0542474 0.0538084 0.0544506 0.0537466 0.054151 0.0538983 0.0543934 0.054156 0.0546067 0.0537793 0.0538854 0.054092 0.0546199 0.053851 0.0538462 0.0545616 0.0540403 0.0539529 0.0545405 0.0538714 0.0541278 0.0539356 0.0546469 0.0541931 0.0539822 0.0547022 0.0540622 0.053762 0.0539177 0.054096 0.0546714 0.0540208 0.053853 0.0546494 0.0539611 0.0539731 0.0538603 0.0540421 0.054493 0.0540333 0.0535392 0.0541269 0.0544249 0.0542634 0.0535425 0.0541927 0.0540791 0.0541251 0.0536342 0.0544496 0.0540094 0.0540907 0.053434 0.0539869 0.0545175 0.0541763 0.0540501 0.0534506 0.0545863 0.0541099 0.0541363 0.0535433 0.054074 0.0544498 0.0536454 0.0540378 0.0541378 0.0545075 0.0537559 0.054105 0.0549154 0.0541678 0.0540507 0.0537535 0.0549154 0.0540545 0.054169 0.0548621 0.0535551 0.0540407 0.0541074 0.0536479 0.0542701 0.0549616 0.0539547 0.0536578 0.05425 0.0549702 0.054917 0.0542016 0.0539686 0.0529866 0.0548101 0.0542222 0.0540254 0.0528684 0.054871 0.0543012 0.0530031 0.0540117 0.0547756 0.0540771 0.0528695 0.0548345 0.0539158 0.0541572 0.0528592 0.0549018 0.0538543 0.0541937 0.0529876 0.054798 0.0539584 0.0542399 0.0539513 0.0530877 0.0550178 0.054947 0.0541322 0.0531905 0.0538894 0.0549643 0.0542021 0.0531935 0.0538745 0.0542241 0.0529616 0.0550647 0.0537962 0.0542586 0.0530635 0.0539015 0.0550481 0.0543052 0.0531031 0.0538272 0.0550057 0.0543574 0.0527176 0.0537571 0.0549825 0.054381 0.0548957 0.0527339 0.0540303 0.054321 0.0548751 0.0528233 0.0539784 0.0548407 0.054323 0.0539697 0.0525735 0.0549612 0.054434 0.0538534 0.0549361 0.0526678 0.0543956 0.0539216 0.052961 0.0549077 0.0539253 0.052906 0.053841 0.0547159 0.053981 0.053046 0.0546557 0.0539212 0.0539217 0.0547752 0.0527429 0.0538187 0.0538787 0.0547153 0.0528134 0.0537484 0.0540045 0.0546985 0.0538607 0.0528128 0.0539139 0.0545691 0.0537995 0.0529128 0.0539783 0.0545901 0.0538638 0.0539562 0.053327 0.0545185 0.05381 0.0540297 0.0533486 0.0546316 0.0540264 0.0534485 0.0546518 0.0536738 0.0540989 0.0531541 0.0537513 0.0545673 0.0532653 0.054182 0.053696 0.0532352 0.0548141 0.0540729 0.0547673 0.0542306 0.0533504 0.0536263 0.0547277 0.0541587 0.053738 0.0534537 0.0548462 0.0537007 0.0539441 0.0535645 0.0547884 0.0536126 0.0541049 0.0533513 0.0548112 0.0540271 0.0536245 0.0546671 0.0535361 0.0535898 0.0539692 0.0546041 0.0534488 0.0540296 0.0538605 0.0546918 0.053041 0.0537489 0.0541713 0.0531346 0.0547374 0.054091 0.0538125 0.0532443 0.0546347 0.0542357 0.0537477 0.0531389 0.054157 0.0536931 0.053013 0.0546456 0.0537002 0.0541801 0.0530356 0.054247 0.0552686 0.0536031 0.0532655 0.0542499 0.0552754 0.0537129 0.0533594 0.054286 0.0552488 0.0536247 0.053263 0.054361 0.0552986 0.0543533 0.0535104 0.0533464 0.0542708 0.0553209 0.053604 0.0531752 0.0543942 0.0553008 0.0536309 0.0543234 0.0531525 0.0552565 0.0536817 0.0544128 0.0552608 0.0532317 0.0535047 0.0535893 0.0516101 0.05522 0.0544648 0.0552852 0.05172 0.0534776 0.0544299 0.0552801 0.0535618 0.0518299 0.0552803 0.0544893 0.0534671 0.0517255 0.0544813 0.0553454 0.0534956 0.0515114 0.0553328 0.0535253 0.0515198 0.0545503 0.0553241 0.0515989 0.0534305 0.0542996 0.0553464 0.0516112 0.0543681 0.0533901 0.0553439 0.0544044 0.0519244 0.055302 0.0532939 0.055325 0.0519291 0.0543693 0.0533961 0.0553095 0.05531 0.0542979 0.0521034 0.0553387 0.0537295 0.0544373 0.0517834 0.055322 0.0544381 0.0536741 0.0517493 0.0552237 0.0545299 0.0537108 0.0519313 0.0551872 0.0544595 0.0518966 0.0552601 0.0545151 0.0536309 0.0552253 0.0513561 0.0552031 0.0535853 0.0514398 0.0545732 0.0552272 0.051532 0.0551687 0.053772 0.0545931 0.051255 0.0551345 0.053729 0.0531107 0.0512778 0.055173 0.0531546 0.0536802 0.0513879 0.0551303 0.0536138 0.0514318 0.0532288 0.0536697 0.0550998 0.0514222 0.053128 0.0552 0.0532086 0.0516701 0.0535474 0.0532561 0.0518095 0.0551624 0.0535478 0.0552614 0.0533104 0.0515885 0.0552583 0.053527 0.0533791 0.0515674 0.0553085 0.053466 0.0552881 0.0534674 0.053434 0.0516916 0.0552545 0.0533419 0.0516876 0.0533281 0.055284 0.053435 0.0552254 0.0522081 0.0533494 0.0535256 0.0551866 0.0520758 0.0534857 0.0533264 0.0551958 0.0531471 0.0522476 0.0534932 0.0552595 0.0532329 0.0521377 0.0535359 0.0552168 0.053297 0.0520249 0.0534118 0.055202 0.0532542 0.0520154 0.0534398 0.0531782 0.0553525 0.053164 0.0532852 0.0521311 0.0553649 0.0533579 0.0532823 0.0523087 0.0553518 0.0533048 0.0533058 0.0553654 0.0524466 0.0533589 0.0536869 0.0553665 0.053382 0.0553512 0.0524314 0.0537304 0.0534355 0.0553222 0.0534726 0.0522679 0.0536553 0.0553372 0.0534044 0.0553427 0.0535153 0.0522468 0.0553602 0.0536172 0.051891 0.0534563 0.0553283 0.051882 0.0535728 0.0553373 0.053504 0.0535392 0.0520045 0.055377 0.0535518 0.053584 0.0517292 0.0553749 0.0535387 0.0553618 0.0518937 0.0536787 0.0536875 0.0553653 0.0521211 0.0536105 0.0536188 0.05218 0.0534745 0.0535627 0.0553745 0.0521345 0.0535275 0.0536245 0.0534534 0.0553698 0.0536991 0.0520185 0.0533868 0.0553654 0.0534073 0.0518919 0.0538187 0.0553454 0.0532752 0.0519967 0.0553394 0.0537567 0.0511283 0.0533264 0.0511417 0.0553532 0.0533508 0.053893 0.0512331 0.0553553 0.0534043 0.053909 0.0512986 0.0553428 0.0532865 0.053847 0.0510062 0.0553099 0.0532081 0.0537888 0.0510698 0.055306 0.0511563 0.0539296 0.053153 0.0552807 0.0513823 0.0535711 0.0553223 0.0532863 0.0514461 0.055295 0.0536336 0.0553067 0.0516074 0.0536573 0.0532432 0.0552679 0.0537267 0.0515437 0.0532088 0.0552315 0.0536718 0.0512969 0.0532119 0.055208 0.0535859 0.0512891 0.0531155 0.0552701 0.053735 0.0514123 0.0530076 0.0552407 0.0530116 0.0514488 0.0537871 0.05309 0.0552477 0.050936 0.0538622 0.0531728 0.0552166 0.0509151 0.0538555 0.055326 0.0532271 0.0510415 0.0539342 0.0552873 0.0531348 0.0510271 0.0553079 0.0537987 0.0530465 0.0507089 0.0553237 0.0539353 0.0529897 0.0507813 0.0553091 0.0531146 0.0538814 0.0509477 0.0552808 0.0531854 0.0529232 0.0508692 0.0552615 0.0532572 0.0528927 0.0511736 0.0552205 0.053252 0.0529711 0.0533238 0.0512317 0.0552484 0.0528271 0.0531788 0.0510918 0.0552686 0.0531823 0.0511573 0.0533001 0.0527583 0.055231 0.0511927 0.052758 0.0550753 0.0515729 0.052916 0.051708 0.0550184 0.0528355 0.0517405 0.0551175 0.0528287 0.0515809 0.0550781 0.0528984 0.0516245 0.0550382 0.0517751 0.0549902 0.0527408 0.0518856 0.0549553 0.0532108 0.0519935 0.0549362 0.0516825 0.0531572 0.0550533 0.051859 0.0532135 0.0549784 0.0518053 0.053078 0.0550011 0.0514844 0.0530753 0.0551546 0.0514252 0.0530168 0.0550863 0.0514775 0.0531301 0.055107 0.0512945 0.0530795 0.0551642 0.0513084 0.0530229 0.0551438 0.0514312 0.0551136 0.0529622 0.0515557 0.0550292 0.0529694 0.0516613 0.0550024 0.0528981 0.0516592 0.0550641 0.0527642 0.0550828 0.0514485 0.0528428 0.0550183 0.0515608 0.0527551 0.0548763 0.0528339 0.051522 0.0548976 0.0529605 0.0525445 0.0548303 0.052834 0.0549166 0.0524224 0.0529229 0.0548349 0.0525676 0.0548529 0.0526988 0.0526224 0.0547584 0.052468 0.0547732 0.0526988 0.0523115 0.0547086 0.0527874 0.0524231 0.0526646 0.0535624 0.0546598 0.0527828 0.0535516 0.054782 0.0527727 0.0535106 0.054721 0.0525489 0.054945 0.0534909 0.0526711 0.0549069 0.0548903 0.053443 0.052661 0.0548426 0.0522948 0.0533863 0.0549317 0.0524483 0.0534876 0.0549637 0.0521984 0.0548634 0.0534933 0.0547888 0.0521325 0.0534343 0.0522274 0.0547291 0.0533488 0.0548169 0.0523214 0.0532835 0.0547352 0.0525357 0.0534033 0.0524442 0.0547578 0.0525521 0.0533548 0.0551749 0.0523258 0.0533243 0.0551245 0.053242 0.0524532 0.0551454 0.0524399 0.0532397 0.0551859 0.053192 0.0528902 0.0551903 0.0533065 0.0551511 0.0529078 0.0531551 0.0550935 0.0529454 0.0532247 0.0528125 0.0550337 0.055117 0.0531856 0.0528614 0.0551145 0.0531136 0.0530752 0.0550536 0.0530869 0.0551849 0.0530227 0.0533741 0.0551455 0.0531294 0.0533521 0.0551884 0.0529092 0.0533776 0.0552192 0.0530726 0.0532529 0.0551454 0.0532702 0.0530014 0.055112 0.0531618 0.0526881 0.0550529 0.0526063 0.0531963 0.0551121 0.0527436 0.0532951 0.0525268 0.0550699 0.0526228 0.0550619 0.0531812 0.0528477 0.0549801 0.0532819 0.052818 0.0548918 0.0531926 0.0529415 0.0549425 0.0530883 0.0526011 0.0549975 0.0527174 0.0550028 0.0530968 0.0549007 0.0527549 0.053203 0.0549473 0.0526847 0.0531097 0.0548269 0.0530068 0.0519842 0.0547528 0.0530209 0.0520913 0.0547728 0.0521051 0.0530862 0.0548692 0.0519924 0.0528919 0.0548156 0.0529782 0.054835 0.0518337 0.0530737 0.0547719 0.0519417 0.0529829 0.0522313 0.0550111 0.0549581 0.0523418 0.0529984 0.0549285 0.0522884 0.0529213 0.0520768 0.0549745 0.0520796 0.0528182 0.0550228 0.0521826 0.0529021 0.0521901 0.0549242 0.0530836 0.0517634 0.0548777 0.0519301 0.054814 0.0530836 0.0518414 0.0547677 0.0530068 0.0516741 0.0548744 0.0529563 0.0518107 0.0529007 0.0548181 0.0529858 0.0516907 0.0519771 0.0530237 0.0547535 0.0520876 0.0542904 0.0529526 0.0518812 0.0542072 0.0528544 0.0519878 0.0528955 0.0542543 0.0523677 0.0541428 0.0528193 0.0542022 0.0523961 0.0528664 0.0542707 0.0524444 0.0527648 0.0524868 0.0543488 0.0528173 0.0522799 0.0542538 0.0527159 0.0522916 0.054176 0.0525512 0.054037 0.0526117 0.054095 0.0526254 0.0526796 0.0540496 0.0539654 0.0525838 0.0527626 0.0541328 0.0523917 0.0526993 0.0541445 0.0524973 0.0526881 0.0543433 0.0524469 0.0525702 0.054294 0.0522046 0.052626 0.0521342 0.0543717 0.0525181 0.0521307 0.0543975 0.0529372 0.0519368 0.0543257 0.0528563 0.0520514 0.0542114 0.0527407 0.0520113 0.0541897 0.052128 0.0528434 0.0541116 0.0522416 0.0527591 0.0541003 0.0523363 0.0527253 0.0542586 0.0523122 0.0526764 0.054256 0.0522076 0.0528084 0.0541814 0.0538893 0.0527068 0.0521898 0.0539846 0.0525438 0.0538156 0.0526658 0.0540235 0.0540278 0.0539764 0.0525724 0.0540185 0.0538583 0.0539233 0.052556 0.0540879 0.0537509 0.0526368 0.0537831 0.0539291 0.0525526 0.0536652 0.053677 0.05395 0.0524266 0.0535979 0.0540145 0.0523859 0.0538542 0.0541642 0.0537551 0.0524874 0.0542626 0.0537641 0.0524555 0.0541648 0.0540449 0.0525765 0.0540843 0.0540135 0.0540693 0.052476 0.0539277 0.0541329 0.0539484 0.0523148 0.0538399 0.0540762 0.053926 0.0524398 0.0541069 0.053751 0.0522759 0.0538339 0.0540007 0.0538068 0.0538509 0.0523842 0.0539923 0.0538516 0.0540374 0.053785 0.0539868 0.0539818 0.0539225 0.0538727 0.0538512 0.0539038 0.0538893 0.0539359 0.0538153 0.0539598 0.0543234 0.0544632 0.0538537 0.0542809 0.054495 0.0541844 0.0538952 0.0544216 0.0542254 0.0537837 0.0542447 0.0543443 0.0543544 0.053859 0.0545327 0.0537787 0.0544606 0.0543659 0.0544174 0.0537351 0.054417 0.0543877 0.05372 0.0543049 0.0543005 0.05366 0.0542559 0.0542807 0.0542162 0.0536195 0.0543313 0.0543386 0.054088 0.0535474 0.054297 0.0541419 0.0540399 0.0537866 0.0545576 0.0539802 0.0537374 0.0544905 0.054094 0.0541933 0.0536413 0.054439 0.0541526 0.0542263 0.0545788 0.0536615 0.0540468 0.0545073 0.0536741 0.0541134 0.0535539 0.0545238 0.0541671 0.0535321 0.0543703 0.0536526 0.053648 0.0537317 0.0543291 0.0536901 0.0543889 0.0536023 0.0535475 0.0544576 0.0534797 0.0536209 0.0535551 0.0544078 0.0536252 0.0537596 0.0534068 0.0543325 0.0538766 0.0534417 0.0541579 0.0538237 0.0541306 0.0536937 0.0536716 0.0540508 0.0537587 0.0541694 0.0535696 0.0542114 0.0534539 0.053499 0.054086 0.0534288 0.0540097 0.0534966 0.0535101 0.0539779 0.0534683 0.0533113 0.053926 0.0533929 0.0534237 0.053834 0.0535809 0.0540126 0.0536016 0.0533113 0.0538875 0.0536515 0.0539561 0.0533047 0.0534609 0.0542684 0.0532763 0.0534068 0.0542521 0.0533821 0.0541049 0.0534805 0.053531 0.0541356 0.0531885 0.0541905 0.0539342 0.0531511 0.0539904 0.0542681 0.0538273 0.0534234 0.053792 0.0541881 0.0533396 0.0538385 0.0542214 0.0533053 0.0538962 0.0540396 0.0539525 0.0532977 0.0539111 0.0540638 0.0533545 0.0539791 0.0540059 0.0532442 0.0540209 0.0538948 0.0532389 0.0541028 0.0539501 0.0531495 0.0536649 0.0539369 0.0531363 0.0537253 0.0535521 0.0537238 0.0530217 0.0535282 0.0535384 0.0533928 0.0534957 0.0534556 0.0536604 0.0535651 0.0536522 0.0535988 0.0534423 0.0535955 0.0538415 0.053498 0.0534172 0.0537743 0.0533843 0.053788 0.0535142 0.0533199 0.0532915 0.0538994 0.0532374 0.0534505 0.0537211 0.0533168 0.0533456 0.053405 0.0536634 0.0533958 0.0533228 0.0532647 0.0534579 0.0544616 0.053334 0.053362 0.0532508 0.0532188 0.0545042 0.0536929 0.0544979 0.0533377 0.0537254 0.0543814 0.0536175 0.0533066 0.0544154 0.0535567 0.0532071 0.0545034 0.0545288 0.0532378 0.0537566 0.0536174 0.0545851 0.0532071 0.0536694 0.0545186 0.0531333 0.0534871 0.0544333 0.0531828 0.05339 0.0544414 0.0530841 0.0533033 0.0531633 0.054434 0.0535347 0.0543227 0.0534595 0.0529981 0.0542661 0.0534357 0.0530989 0.0543605 0.0533807 0.0529709 0.0542207 0.053166 0.0531914 0.0531687 0.0541793 0.0529828 0.054268 0.053197 0.0530674 0.0542991 0.0531256 0.0530835 0.0543679 0.0530077 0.0531646 0.0543415 0.0531168 0.0532421 0.0542094 0.0530708 0.0531238 0.054256 0.0530485 0.0528694 0.0542798 0.0528633 0.0529585 0.0530206 0.0528081 0.0545947 0.0529167 0.0527605 0.0529946 0.0527911 0.0545889 0.0529139 0.0529471 0.0545819 0.0528428 0.0531052 0.0545139 0.0532139 0.0544476 0.0530307 0.0533104 0.0544916 0.0530451 0.0531704 0.0545873 0.052908 0.0533201 0.0528157 0.0531736 0.0545777 0.0529539 0.0532425 0.0545168 0.0528751 0.0532411 0.0528077 0.0545102 0.0530676 0.0529906 0.0526771 0.0529135 0.0545002 0.0527327 0.052906 0.0543667 0.053061 0.0544026 0.0526087 0.0530455 0.0543254 0.0530063 0.0532092 0.0529427 0.0543228 0.0537758 0.0542528 0.0531674 0.0536066 0.0544259 0.0534129 0.0530319 0.0544321 0.0536917 0.0533623 0.0530611 0.0537521 0.0543586 0.0543987 0.0538427 0.0531143 0.0536817 0.0542572 0.0529909 0.0535918 0.0543259 0.0535087 0.0529768 0.0534564 0.0528413 0.0542644 0.0535018 0.0535549 0.0528082 0.0540699 0.0533894 0.053481 0.0528841 0.0536492 0.0541304 0.0533941 0.0535721 0.0541085 0.052946 0.0535438 0.0535063 0.0539565 0.0527714 0.053482 0.0538869 0.0540161 0.053 0.0531797 0.0538122 0.05401 0.0532534 0.0537273 0.053043 0.0541451 0.053351 0.0537764 0.0529225 0.0541949 0.0532844 0.052907 0.0536871 0.0540493 0.0533671 0.0529297 0.0540899 0.0538897 0.0532106 0.0527917 0.0540236 0.0531767 0.0538454 0.0527497 0.0538451 0.0533532 0.0538389 0.0528589 0.0537804 0.0532805 0.0539014 0.0536189 0.0527563 0.0534347 0.0535719 0.0527934 0.0537274 0.0534942 0.0534777 0.0526351 0.0537902 0.0526609 0.053713 0.05354 0.0537186 0.0536358 0.053942 0.0525081 0.0534203 0.0538831 0.0535711 0.0526876 0.0539826 0.0533013 0.0534693 0.0539097 0.0526868 0.0533731 0.05377 0.0535524 0.0532133 0.0525878 0.0534334 0.0538236 0.0536428 0.0526743 0.053288 0.0537998 0.05381 0.0533353 0.0525543 0.0537371 0.0542174 0.0531333 0.0525756 0.0537257 0.0541632 0.0531049 0.0524903 0.0536243 0.0541545 0.0529732 0.0524318 0.0531558 0.0536228 0.0540451 0.0537037 0.0531963 0.0523893 0.0541235 0.0530354 0.0537717 0.0540598 0.0523272 0.053113 0.0542449 0.0538795 0.0523312 0.0530728 0.0541644 0.0524465 0.053422 0.0540113 0.0540833 0.0522613 0.0532748 0.0539542 0.0540934 0.0526016 0.0533521 0.053857 0.0526505 0.0534855 0.0538603 0.0540874 0.0525324 0.0534517 0.0539346 0.054169 0.0524324 0.0537136 0.0539384 0.0534063 0.0524602 0.0539583 0.0536282 0.0533092 0.0523081 0.0538626 0.0537859 0.0533685 0.0523922 0.0531885 0.0538698 0.0532378 0.0536156 0.0524215 0.0539912 0.0531279 0.0539838 0.0522662 0.0537022 0.0530675 0.0521923 0.0539904 0.0537147 0.0532507 0.0523409 0.0539151 0.0537863 0.053154 0.0522632 0.0530778 0.0538924 0.0538649 0.052172 0.0539284 0.0545904 0.0538176 0.0540112 0.053