# vtk DataFile Version 3.0
vtk output
ASCII
DATASET UNSTRUCTURED_GRID
POINTS 44487 float
0.00715198 0.0145953 0
0.00932913 0 0
0.0178804 0 0
0.0167367 0.0151911 0
0.00715198 0.0145953 0
0 0 0
0.00932913 0 0
0.00715198 0.0145953 0
0.00130274 0.0182273 0
0 0.018266 0
0 0 0
0.370605 0.969797 0
0.374424 0.966809 0
0.381227 0.967889 0
0.384841 0.972891 0
0.37633 0.982606 0
0.370936 0.980048 0
0.370605 0.969797 0
0.0204985 0 0
0.0378733 0 0
0.0326472 0.0129951 0
0.029672 0.0135155 0
0.0204985 0 0
0.017172 0.0156065 0
0.0167367 0.0151911 0
0.0178804 0 0
0.0204985 0 0
0.029672 0.0135155 0
0.0260136 0.0169102 0
0.017172 0.0156065 0
0.388461 0.973745 0
0.392491 0.972329 0
0.400737 0.978654 0
0.400039 0.986823 0
0.396965 0.988767 0
0.389695 0.987567 0
0.388461 0.973745 0
0 0.018266 0
0.00130274 0.0182273 0
0.0110189 0.0276717 0
0.00672745 0.0363205 0
0 0.0365025 0
0 0.018266 0
0.396377 0.964959 0
0.405385 0.965325 0
0.409636 0.974059 0
0.400737 0.978654 0
0.392491 0.972329 0
0.396377 0.964959 0
0.00672745 0.0363205 0
0.0110189 0.0276717 0
0.0154868 0.0269777 0
0.0201727 0.0298364 0
0.0179584 0.0406927 0
0.0110599 0.0410931 0
0.00672745 0.0363205 0
0.98926 0.395326 0
1 0.394662 0
1 0.406587 0
0.992737 0.407116 0
0.986036 0.401562 0
0.98926 0.395326 0
0.377592 0.986052 0
0.384372 0.990451 0
0.383264 1 0
0.367479 1 0
0.367613 0.998043 0
0.377592 0.986052 0
0.00130274 0.0182273 0
0.00715198 0.0145953 0
0.0167367 0.0151911 0
0.017172 0.0156065 0
0.0154868 0.0269777 0
0.0110189 0.0276717 0
0.00130274 0.0182273 0
0.396965 0.988767 0
0.400039 0.986823 0
0.410026 0.989937 0
0.410957 1 0
0.397674 1 0
0.396965 0.988767 0
0.017172 0.0156065 0
0.0260136 0.0169102 0
0.0280404 0.026823 0
0.0265421 0.0283991 0
0.0201727 0.0298364 0
0.0154868 0.0269777 0
0.017172 0.0156065 0
0.949845 0.408216 0
0.950732 0.408918 0
0.948774 0.421089 0
0.945194 0.423178 0
0.944624 0.42319 0
0.936821 0.415491 0
0.939345 0.408966 0
0.949845 0.408216 0
0.429086 0.450307 0
0.440283 0.455878 0
0.440764 0.461796 0
0.43192 0.467041 0
0.424444 0.459403 0
0.427353 0.450949 0
0.429086 0.450307 0
0.389695 0.987567 0
0.396965 0.988767 0
0.397674 1 0
0.383264 1 0
0.384372 0.990451 0
0.389695 0.987567 0
0.0265421 0.0283991 0
0.0280404 0.026823 0
0.0352842 0.0267008 0
0.0398927 0.0317172 0
0.0324401 0.0435484 0
0.0304571 0.0426629 0
0.0265421 0.0283991 0
0.418162 0.461665 0
0.424444 0.459403 0
0.43192 0.467041 0
0.430957 0.473735 0
0.415645 0.473263 0
0.415465 0.472995 0
0.418162 0.461665 0
0.950732 0.408918 0
0.955725 0.408761 0
0.962968 0.415221 0
0.962739 0.418209 0
0.95758 0.422798 0
0.948774 0.421089 0
0.950732 0.408918 0
0.410117 0.957761 0
0.421322 0.966583 0
0.420824 0.970378 0
0.41098 0.974499 0
0.409636 0.974059 0
0.405385 0.965325 0
0.410117 0.957761 0
0.0280404 0.026823 0
0.0260136 0.0169102 0
0.029672 0.0135155 0
0.0326472 0.0129951 0
0.0399595 0.0167532 0
0.0352842 0.0267008 0
0.0280404 0.026823 0
0.383542 0.46756 0
0.388396 0.468858 0
0.391679 0.475576 0
0.384192 0.484609 0
0.376785 0.480141 0
0.375046 0.474664 0
0.383542 0.46756 0
0.0378733 0 0
0.0421896 0 0
0.0453864 0.0127686 0
0.041453 0.0163965 0
0.0399595 0.0167532 0
0.0326472 0.0129951 0
0.0378733 0 0
0.962532 0.39873 0
0.970237 0.404978 0
0.970577 0.409615 0
0.962968 0.415221 0
0.955725 0.408761 0
0.962532 0.39873 0
0.420824 0.970378 0
0.424142 0.974305 0
0.422932 0.985829 0
0.422534 0.986119 0
0.414227 0.986091 0
0.41098 0.974499 0
0.420824 0.970378 0
0.0421896 0 0
0.0566417 0 0
0.0521667 0.0127038 0
0.0453864 0.0127686 0
0.0421896 0 0
0.945194 0.423178 0
0.948774 0.421089 0
0.95758 0.422798 0
0.959495 0.432824 0
0.955433 0.43663 0
0.952256 0.436672 0
0.945194 0.423178 0
0.384192 0.484609 0
0.391679 0.475576 0
0.399146 0.477736 0
0.401642 0.485085 0
0.401061 0.486819 0
0.388808 0.490632 0
0.385469 0.488582 0
0.384192 0.484609 0
0.421322 0.966583 0
0.426258 0.96115 0
0.430737 0.960666 0
0.433001 0.96179 0
0.435719 0.973854 0
0.435507 0.974269 0
0.424142 0.974305 0
0.420824 0.970378 0
0.421322 0.966583 0
0.0559566 0.0159182 0
0.0521667 0.0127038 0
0.0566417 0 0
0.0612701 0 0
0.0642284 0.015278 0
0.0633679 0.0160409 0
0.0559566 0.0159182 0
0.388396 0.468858 0
0.395957 0.461368 0
0.402578 0.464004 0
0.40489 0.470529 0
0.399146 0.477736 0
0.391679 0.475576 0
0.388396 0.468858 0
0.400737 0.978654 0
0.409636 0.974059 0
0.41098 0.974499 0
0.414227 0.986091 0
0.410026 0.989937 0
0.400039 0.986823 0
0.400737 0.978654 0
0.0352842 0.0267008 0
0.0399595 0.0167532 0
0.041453 0.0163965 0
0.0497838 0.028292 0
0.0467844 0.0327422 0
0.0398927 0.0317172 0
0.0352842 0.0267008 0
0.936019 0.43136 0
0.944624 0.42319 0
0.945194 0.423178 0
0.952256 0.436672 0
0.945947 0.440967 0
0.936019 0.43136 0
0.414227 0.986091 0
0.422534 0.986119 0
0.421864 1 0
0.410957 1 0
0.410026 0.989937 0
0.414227 0.986091 0
0.0467844 0.0327422 0
0.0497838 0.028292 0
0.0520648 0.0273063 0
0.060773 0.030197 0
0.0607824 0.0389617 0
0.056044 0.0413017 0
0.0479133 0.0358328 0
0.0467844 0.0327422 0
0.367766 0.489173 0
0.376785 0.480141 0
0.384192 0.484609 0
0.385469 0.488582 0
0.375763 0.496636 0
0.369808 0.49462 0
0.367766 0.489173 0
0.95758 0.422798 0
0.962739 0.418209 0
0.971898 0.424546 0
0.966646 0.433446 0
0.959495 0.432824 0
0.95758 0.422798 0
0.435507 0.974269 0
0.437984 0.98275 0
0.432558 0.986927 0
0.422932 0.985829 0
0.424142 0.974305 0
0.435507 0.974269 0
0.0559566 0.0159182 0
0.0633679 0.0160409 0
0.0655678 0.0263758 0
0.060773 0.030197 0
0.0520648 0.0273063 0
0.0559566 0.0159182 0
0.962968 0.415221 0
0.970577 0.409615 0
0.97817 0.414566 0
0.978537 0.415427 0
0.973763 0.424068 0
0.971898 0.424546 0
0.962739 0.418209 0
0.962968 0.415221 0
0.432558 0.986927 0
0.434778 1 0
0.421864 1 0
0.422534 0.986119 0
0.422932 0.985829 0
0.432558 0.986927 0
0.041453 0.0163965 0
0.0453864 0.0127686 0
0.0521667 0.0127038 0
0.0559566 0.0159182 0
0.0520648 0.0273063 0
0.0497838 0.028292 0
0.041453 0.0163965 0
0.379376 0.505326 0
0.375763 0.496636 0
0.385469 0.488582 0
0.388808 0.490632 0
0.391114 0.500869 0
0.383666 0.506431 0
0.379376 0.505326 0
0.970577 0.409615 0
0.970237 0.404978 0
0.977888 0.39911 0
0.985946 0.401583 0
0.97817 0.414566 0
0.970577 0.409615 0
0 0.0365025 0
0.00672745 0.0363205 0
0.0110599 0.0410931 0
0.00766286 0.0492118 0
0 0.0538094 0
0 0.0365025 0
0.444428 0.937865 0
0.454936 0.941828 0
0.452167 0.951249 0
0.444578 0.952872 0
0.438487 0.945123 0
0.444428 0.937865 0
0.988368 0.41869 0
0.992737 0.407116 0
1 0.406587 0
1 0.421573 0
0.989392 0.420295 0
0.988368 0.41869 0
0.388808 0.490632 0
0.401061 0.486819 0
0.404611 0.494903 0
0.398855 0.503423 0
0.391114 0.500869 0
0.388808 0.490632 0
0.00766286 0.0492118 0
0.0110599 0.0410931 0
0.0179584 0.0406927 0
0.0217777 0.0440174 0
0.0198481 0.0552994 0
0.00766286 0.0492118 0
0.97817 0.414566 0
0.985946 0.401583 0
0.986036 0.401562 0
0.992737 0.407116 0
0.988368 0.41869 0
0.978537 0.415427 0
0.97817 0.414566 0
0.460679 0.933776 0
0.466939 0.930178 0
0.469326 0.93102 0
0.473286 0.943808 0
0.472314 0.945998 0
0.467968 0.947095 0
0.458459 0.940216 0
0.460679 0.933776 0
0.40489 0.470529 0
0.415465 0.472995 0
0.415645 0.473263 0
0.415052 0.482109 0
0.401642 0.485085 0
0.399146 0.477736 0
0.40489 0.470529 0
0.978537 0.415427 0
0.988368 0.41869 0
0.989392 0.420295 0
0.98728 0.426829 0
0.980199 0.429195 0
0.973763 0.424068 0
0.978537 0.415427 0
0.0205115 0.0572681 0
0.0198481 0.0552994 0
0.0217777 0.0440174 0
0.0304571 0.0426629 0
0.0324401 0.0435484 0
0.0331706 0.0445719 0
0.0311492 0.0533824 0
0.0205115 0.0572681 0
0.415645 0.473263 0
0.430957 0.473735 0
0.431771 0.475064 0
0.428781 0.484754 0
0.417483 0.485367 0
0.415052 0.482109 0
0.415645 0.473263 0
0.454936 0.941828 0
0.458459 0.940216 0
0.467968 0.947095 0
0.464999 0.952993 0
0.456793 0.955953 0
0.452167 0.951249 0
0.454936 0.941828 0
0.969792 0.438306 0
0.966646 0.433446 0
0.971898 0.424546 0
0.973763 0.424068 0
0.980199 0.429195 0
0.978706 0.43877 0
0.969792 0.438306 0
0.0201727 0.0298364 0
0.0265421 0.0283991 0
0.0304571 0.0426629 0
0.0217777 0.0440174 0
0.0179584 0.0406927 0
0.0201727 0.0298364 0
0.431771 0.475064 0
0.441219 0.477083 0
0.443728 0.485707 0
0.440203 0.490835 0
0.432538 0.490234 0
0.428781 0.484754 0
0.431771 0.475064 0
0.989392 0.420295 0
1 0.421573 0
1 0.432382 0
0.993032 0.434433 0
0.98728 0.426829 0
0.989392 0.420295 0
0.452167 0.951249 0
0.456793 0.955953 0
0.455504 0.965973 0
0.449723 0.967183 0
0.442748 0.958494 0
0.444578 0.952872 0
0.452167 0.951249 0
0.00952614 0.0614947 0
0.0204985 0.0573138 0
0.0224918 0.0636435 0
0.0203537 0.0696766 0
0.0108295 0.0715056 0
0.00951826 0.0708025 0
0.00952614 0.0614947 0
0.980199 0.429195 0
0.98728 0.426829 0
0.993032 0.434433 0
0.990123 0.439317 0
0.980475 0.440691 0
0.978706 0.43877 0
0.980199 0.429195 0
0 0.0538094 0
0.00766286 0.0492118 0
0.0198481 0.0552994 0
0.0205115 0.0572681 0
0.0204985 0.0573138 0
0.00952614 0.0614947 0
0 0.0544408 0
0 0.0538094 0
0.456793 0.955953 0
0.464999 0.952993 0
0.470619 0.962552 0
0.462199 0.969655 0
0.460608 0.969635 0
0.455504 0.965973 0
0.456793 0.955953 0
0 0.0544408 0
0.00952614 0.0614947 0
0.00951826 0.0708025 0
0 0.0735678 0
0 0.0544408 0
0.401642 0.485085 0
0.415052 0.482109 0
0.417483 0.485367 0
0.415753 0.495617 0
0.414454 0.496627 0
0.404611 0.494903 0
0.401061 0.486819 0
0.401642 0.485085 0
0.469326 0.93102 0
0.478391 0.927853 0
0.487587 0.936271 0
0.473286 0.943808 0
0.469326 0.93102 0
0.0204985 0.0573138 0
0.0205115 0.0572681 0
0.0311492 0.0533824 0
0.0378909 0.0598978 0
0.0342958 0.0654883 0
0.0224918 0.0636435 0
0.0204985 0.0573138 0
0.881979 0.442586 0
0.890532 0.441421 0
0.895522 0.448924 0
0.893989 0.454049 0
0.892016 0.455531 0
0.882542 0.455104 0
0.881979 0.442586 0
0.417483 0.485367 0
0.428781 0.484754 0
0.432538 0.490234 0
0.427484 0.498827 0
0.415753 0.495617 0
0.417483 0.485367 0
0.487587 0.936271 0
0.489054 0.936587 0
0.490113 0.942367 0
0.481825 0.953372 0
0.480248 0.953552 0
0.472314 0.945998 0
0.473286 0.943808 0
0.487587 0.936271 0
0.0398927 0.0317172 0
0.0467844 0.0327422 0
0.0479133 0.0358328 0
0.0416702 0.0466916 0
[...]
CELL_DATA 6400
FIELD FieldData 3
weight 1 6400 float
 0.0525556 0.0524884 0.0504819 0.0526878 0.0526418 0.0504423 0.0525865 0.0505718 0.0526729 0.0527834 0.0502341 0.0526003 0.0502929 0.0526723 0.0531413 0.0548263 0.0502616 0.0528046 0.0547808 0.05306 0.0506398 0.0527425 0.0546499 0.0527474 0.053029 0.050493 0.0528152 0.0530433 0.0546406 0.0506205 0.0528974 0.0547077 0.0504545 0.0528396 0.053091 0.0503229 0.0529558 0.0545814 0.0529646 0.0504888 0.0529539 0.0529384 0.0503395 0.0528752 0.0545638 0.0529196 0.0526332 0.0509026 0.052747 0.0546075 0.0527227 0.052841 0.0509977 0.0546977 0.0528356 0.0527939 0.0547311 0.0508754 0.0528703 0.0527503 0.0547308 0.0527188 0.0507657 0.0527561 0.0527813 0.0527096 0.0507656 0.0526824 0.0546614 0.0510501 0.0528563 0.0534381 0.0546887 0.0509401 0.052874 0.0534928 0.0529433 0.0509722 0.0546672 0.053312 0.053024 0.0507489 0.0548674 0.0533879 0.0528812 0.0508185 0.0548794 0.0533809 0.0529708 0.0548914 0.0508685 0.0534336 0.0530876 0.0547847 0.0505554 0.0530208 0.0533104 0.0548444 0.0506796 0.0529583 0.0533025 0.0548247 0.0530831 0.0505767 0.0531058 0.0531948 0.0549139 0.0505394 0.0530092 0.0530907 0.0503625 0.0548941 0.0531143 0.0503654 0.0531856 0.0530437 0.0549215 0.05035 0.0532192 0.0531945 0.0548848 0.0503582 0.0530888 0.0531883 0.0548563 0.0506556 0.0532244 0.053376 0.0548549 0.0547642 0.0547986 0.0547124 0.054742 0.0548195 0.0547748 0.0547863 0.0505958 0.0547173 0.0532384 0.0533099 0.0531443 0.0505302 0.0547249 0.0532544 0.0532986 0.0506411 0.0546401 0.0533768 0.0503513 0.053285 0.0546637 0.0532791 0.0504881 0.0546288 0.0533155 0.0532095 0.0504422 0.0533639 0.0547089 0.0531816 0.0531017 0.0546893 0.0546632 0.0531377 0.0531909 0.054731 0.0532049 0.0531417 0.0546946 0.0547075 0.0530051 0.0532107 0.0546494 0.0546371 0.0532797 0.0546178 0.0530716 0.0546032 0.0532721 0.0546171 0.0530999 0.0546513 0.0533511 0.0547071 0.0530165 0.0545633 0.0546346 0.0534353 0.0529792 0.054546 0.05468 0.0533688 0.0531099 0.0545718 0.05477 0.0533179 0.0529956 0.0546554 0.0547437 0.0529807 0.053449 0.0546249 0.0547649 0.0529215 0.0534111 0.0546363 0.05482 0.0527385 0.052998 0.0547952 0.0546014 0.0528088 0.0528802 0.0545471 0.0548194 0.0528747 0.0529086 0.0547839 0.054564 0.0529368 0.052832 0.0547523 0.0527628 0.0544841 0.0528273 0.0547423 0.0528963 0.0544818 0.0526595 0.0547287 0.0529722 0.0527254 0.0544153 0.0547626 0.0529956 0.0544229 0.0526965 0.0547977 0.0529484 0.0545185 0.0527916 0.0544623 0.0547676 0.0530329 0.0545602 0.0526296 0.0544733 0.0530837 0.0545807 0.0543502 0.0526963 0.0530303 0.0546067 0.0544181 0.0530927 0.0528889 0.054546 0.0543993 0.053182 0.0543262 0.0527965 0.052779 0.0528602 0.0546178 0.0545895 0.0529495 0.0545696 0.0528959 0.0528657 0.0546587 0.0545551 0.0528281 0.054647 0.0528196 0.0546253 0.0529063 0.0545997 0.0545508 0.0529954 0.0528676 0.0545685 0.0544963 0.0529793 0.0545315 0.0527266 0.0545029 0.0544966 0.0530203 0.0526761 0.0545251 0.0546111 0.0530854 0.052746 0.0545874 0.0545004 0.0531604 0.0525633 0.0544844 0.0545787 0.0531001 0.0525876 0.0546969 0.0544492 0.0530582 0.0525625 0.0543937 0.0547048 0.0543625 0.05319 0.0547012 0.0527078 0.0544356 0.0546684 0.0524887 0.0532632 0.0543226 0.0525681 0.0547645 0.0531421 0.0543255 0.0547306 0.0525406 0.0532017 0.0544102 0.0547357 0.0524337 0.0543397 0.0532311 0.0546555 0.0544305 0.0525864 0.0546267 0.0532816 0.0543639 0.0531606 0.0546357 0.0526407 0.0542783 0.0532428 0.0546975 0.0543001 0.0525175 0.0533228 0.0546951 0.0523755 0.0533167 0.054258 0.0524201 0.0533687 0.0546498 0.0543389 0.0546724 0.0524469 0.0534036 0.0543495 0.0526882 0.053473 0.0541795 0.0548531 0.0528139 0.0535419 0.0542662 0.0548536 0.0527244 0.0534858 0.0542042 0.0549171 0.0534243 0.0542617 0.0528086 0.0549003 0.0542818 0.0533991 0.0525818 0.0548902 0.0535102 0.0542726 0.052638 0.0548455 0.0542001 0.0533073 0.0548563 0.0527237 0.0542009 0.0532397 0.0522201 0.054804 0.0540883 0.0533787 0.0548834 0.0523356 0.0548475 0.0541238 0.0523031 0.053272 0.0548911 0.0541451 0.0524216 0.0533449 0.0549482 0.0522481 0.053424 0.0521553 0.0549305 0.0540289 0.0523226 0.0535256 0.055 0.0540047 0.052416 0.0534444 0.0525571 0.0539945 0.0549857 0.0534785 0.0541308 0.0525068 0.0549893 0.0535669 0.0540731 0.0540516 0.0549588 0.052649 0.0534821 0.0541311 0.0549256 0.0524818 0.0539896 0.0549315 0.0535579 0.0525255 0.0549176 0.0539312 0.0535914 0.0549558 0.0525619 0.0542563 0.0549627 0.0536652 0.0541567 0.0529153 0.0549787 0.0534451 0.0542504 0.0549599 0.0533716 0.0529158 0.0541644 0.0535205 0.0548082 0.0541109 0.0535136 0.0548247 0.0540721 0.0530617 0.0547927 0.0542254 0.0534352 0.0528316 0.0547744 0.0534479 0.0541858 0.0548832 0.0530175 0.0535206 0.0548582 0.0541866 0.0535799 0.0529276 0.0548472 0.0540783 0.0536378 0.0548476 0.0541206 0.0535797 0.0531073 0.0547532 0.0536365 0.054022 0.0547407 0.0537014 0.0531829 0.0540713 0.0537034 0.0547041 0.0540134 0.0530344 0.0536364 0.0548064 0.0539982 0.0531054 0.0548137 0.0537649 0.0539911 0.0537013 0.0547472 0.0531957 0.0539051 0.0535118 0.054774 0.0527381 0.0539365 0.0535763 0.0549297 0.052828 0.0539684 0.0536203 0.0528858 0.0549341 0.0539209 0.0535432 0.0548854 0.0529127 0.0535093 0.0538824 0.0549565 0.0526386 0.0536616 0.0538465 0.0548977 0.0526713 0.0535759 0.0549431 0.0536866 0.0527745 0.0544663 0.0537518 0.0548606 0.0527826 0.0544227 0.0537726 0.0548323 0.052982 0.0537193 0.0548816 0.0530607 0.0538591 0.0548477 0.0531131 0.0537625 0.053824 0.0528636 0.0548911 0.0538953 0.0538303 0.0529607 0.0545171 0.0538319 0.0544574 0.0537708 0.0529138 0.0544278 0.0544497 0.0539077 0.0544162 0.0544078 0.0545176 0.053967 0.0543587 0.0538948 0.0545432 0.0530115 0.054355 0.0545015 0.0540128 0.0521799 0.0544743 0.0540243 0.0543468 0.0520629 0.0543661 0.0539572 0.0544193 0.052331 0.0542628 0.0540303 0.0543591 0.0522366 0.0542998 0.051968 0.0539642 0.0543533 0.054438 0.0521001 0.054062 0.0542815 0.0544747 0.0521822 0.0538225 0.0542666 0.0544 0.0522244 0.053884 0.0543344 0.0543584 0.0524285 0.0539316 0.0542835 0.054602 0.053972 0.0523075 0.0545978 0.0542029 0.0524374 0.0539382 0.0545547 0.0542602 0.0539134 0.0542069 0.0546532 0.0540085 0.0542051 0.0524763 0.0546179 0.053996 0.0541124 0.0523357 0.0545654 0.0541948 0.0541316 0.0522391 0.054527 0.054131 0.0540996 0.0523595 0.0541328 0.0540725 0.0544705 0.0540425 0.0540524 0.0544159 0.0519093 0.0542571 0.0544858 0.0541398 0.0520338 0.0545613 0.0541548 0.054196 0.0520734 0.0545328 0.0519428 0.0535847 0.0545072 0.0542244 0.0542998 0.0536248 0.0541778 0.0542211 0.0536905 0.0518133 0.0542155 0.0541811 0.0541739 0.0519568 0.0536019 0.0540597 0.0543481 0.0519699 0.0541291 0.0536444 0.0542725 0.0521145 0.0542434 0.0537037 0.0540624 0.0537298 0.0541069 0.0540579 0.0522362 0.0537914 0.0541514 0.0522658 0.053803 0.0540911 0.0539703 0.0523521 0.0540477 0.0538639 0.0539644 0.0541512 0.0538681 0.0540861 0.0541958 0.0537824 0.0520874 0.0540807 0.0538794 0.0540799 0.0522394 0.0540145 0.0539774 0.0543895 0.0540059 0.0521282 0.0543151 0.0536339 0.0540042 0.0542723 0.053682 0.0539333 0.0543486 0.0537466 0.0538823 0.0526058 0.0544459 0.0537053 0.0538575 0.052594 0.0544459 0.0539208 0.0538507 0.0526851 0.0543879 0.0538349 0.0537956 0.0542198 0.0537578 0.0541179 0.0541846 0.0524816 0.0538284 0.0541417 0.0541729 0.0525012 0.0539267 0.0543074 0.0540175 0.0526477 0.0542669 0.0540536 0.0540167 0.0527547 0.0543308 0.054058 0.0539527 0.054044 0.0542602 0.053912 0.053942 0.0546631 0.0527883 0.0539881 0.0539724 0.052874 0.0547056 0.0539749 0.0540598 0.0546714 0.0526679 0.0538804 0.0539323 0.0546196 0.0528729 0.0539733 0.05279 0.05401 0.0547245 0.0540898 0.0539453 0.0540841 0.0547252 0.0539055 0.0540216 0.0546113 0.0523565 0.0540806 0.0538043 0.0545416 0.0525021 0.0541471 0.0545325 0.0538717 0.052564 0.0541556 0.0546379 0.0538161 0.0541526 0.0546623 0.0545659 0.0537304 0.0542197 0.0523997 0.0545942 0.0538785 0.0542682 0.052354 0.0547893 0.0538324 0.0542081 0.0527025 0.0537562 0.0547637 0.0542188 0.054709 0.0537553 0.0527994 0.0542772 0.0538195 0.0548084 0.0540475 0.0536849 0.0526686 0.054793 0.0540996 0.0539457 0.0547608 0.0525294 0.0541414 0.0546845 0.0539037 0.0524476 0.0546262 0.0541244 0.0538512 0.0547268 0.0541781 0.0537564 0.0537941 0.0542441 0.0546688 0.0525621 0.0537029 0.0542065 0.0544697 0.053831 0.052699 0.0544853 0.05427 0.0544345 0.0536995 0.0543989 0.0543271 0.0537717 0.0545104 0.0532818 0.0537225 0.0542389 0.0545245 0.0544642 0.0536338 0.0543058 0.053369 0.0536937 0.054377 0.0543643 0.0537969 0.0543121 0.0528605 0.0536353 0.0542567 0.0534322 0.0528669 0.0536557 0.0543372 0.0529372 0.0535875 0.0533099 0.0543935 0.0529991 0.0536106 0.0543472 0.053413 0.0528835 0.0535296 0.0529636 0.0542874 0.0535224 0.0530437 0.0533044 0.0545812 0.0535263 0.0530597 0.054507 0.0535273 0.0534374 0.0545584 0.0531426 0.0534088 0.0536105 0.0531533 0.0546222 0.0538369 0.0532303 0.0536137 0.053291 0.0546051 0.0539325 0.0530898 0.0535002 0.0539081 0.0545275 0.053191 0.0544261 0.0537574 0.0533037 0.054475 0.0538072 0.0535004 0.0532759 0.0544119 0.0537203 0.0529266 0.0532052 0.0543481 0.0529959 0.0539276 0.0531419 0.0529706 0.0544648 0.0538885 0.053352 0.0530742 0.0538319 0.0544107 0.0530093 0.0537352 0.0529204 0.0532173 0.0537902 0.0531327 0.054413 0.0531123 0.0530638 0.0537083 0.0531953 0.0531829 0.0550197 0.0536 0.0531293 0.0550253 0.0536422 0.0532337 0.0534195 0.0550108 0.0535717 0.0533944 0.0533324 0.0550789 0.053482 0.0532223 0.0550436 0.053658 0.053304 0.0550704 0.0534869 0.0536141 0.0532954 0.0550705 0.0532898 0.0536849 0.0550471 0.0533695 0.0535477 0.0532851 0.055009 0.0534989 0.0533466 0.0549996 0.0538282 0.0533804 0.0534148 0.0549878 0.0538485 0.0533867 0.0550522 0.0537019 0.0537819 0.053453 0.0550358 0.0534632 0.0537283 0.055022 0.0551147 0.0537298 0.0535666 0.0536682 0.0550995 0.0537574 0.053488 0.0551044 0.0537833 0.0536315 0.0538136 0.0550887 0.0537389 0.0535102 0.0536044 0.0551304 0.0536899 0.0535804 0.0551214 0.0550851 0.0536598 0.0537027 0.0537237 0.0550428 0.0536216 0.0536455 0.0550755 0.053555 0.0537198 0.0534053 0.0550978 0.0534931 0.0534555 0.0550739 0.0538129 0.0534938 0.0535363 0.0550962 0.0534396 0.0533744 0.054977 0.0536085 0.0549564 0.0533973 0.0539108 0.0535711 0.055009 0.0535399 0.0549864 0.0535953 0.053986 0.0535877 0.0538231 0.0549816 0.0535498 0.0549275 0.0535 0.0539089 0.054917 0.053636 0.0533632 0.0534636 0.05373 0.054899 0.053594 0.0549529 0.0533914 0.0536526 0.0536151 0.0549265 0.0536973 0.0534592 0.0534918 0.0550377 0.05374 0.0550177 0.0533429 0.0550337 0.052928 0.0532683 0.053502 0.0530281 0.0550854 0.0534463 0.0530919 0.0535817 0.0550601 0.0533411 0.0529604 0.0536242 0.0550518 0.0529448 0.053415 0.0549574 0.0530386 0.0550072 0.0533402 0.0531235 0.0538032 0.0549425 0.0533403 0.0531804 0.0537305 0.0549289 0.053248 0.0531756 0.0550216 0.0538854 0.0532628 0.0532323 0.0549783 0.0549837 0.0531327 0.0533388 0.0550136 0.0532298 0.0532034 0.0551477 0.0536706 0.0532615 0.0551402 0.0537077 0.05304 0.0533257 0.055138 0.0537347 0.0533985 0.0530868 0.0529444 0.0551609 0.0530146 0.0530411 0.0551554 0.053775 0.0532157 0.0531162 0.0551567 0.0532002 0.0530749 0.0551213 0.0531067 0.0531058 0.0551116 0.0529609 0.0529456 0.0530017 0.055105 0.0530228 0.0551285 0.0530779 0.0531873 0.055148 0.0531646 0.0533785 0.0551259 0.0531999 0.0529423 0.0534195 0.0532712 0.0551693 0.0530316 0.0533351 0.0551742 0.0533616 0.0530789 0.0533119 0.0533323 0.0532325 0.0551962 0.0532725 0.0532208 0.0532516 0.0551822 0.0533673 0.0532676 0.0533607 0.0551867 0.0532694 0.0530549 0.0551658 0.0534431 0.0551444 0.0532306 0.0534884 0.0551829 0.0531524 0.0535657 0.0531456 0.0551861 0.0532551 0.0531513 0.0534726 0.0551603 0.0531482 0.0535224 0.052872 0.0551604 0.0531225 0.0535336 0.0529306 0.0550848 0.0530603 0.0550986 0.0536225 0.0531284 0.0550734 0.0536543 0.0531646 0.05294 0.0551176 0.0531051 0.0550821 0.0537611 0.0527319 0.0551014 0.0530054 0.0536189 0.0528296 0.0550439 0.0529719 0.0537703 0.0550275 0.0550558 0.0537244 0.0529397 0.0550608 0.0528232 0.0534302 0.0530108 0.0550315 0.0530278 0.0534933 0.0530105 0.0531675 0.0550099 0.053568 0.0530687 0.0551195 0.052996 0.0534211 0.0551319 0.0528597 0.0550876 0.0534365 0.0528785 0.0528885 0.0551333 0.0535842 0.0530811 0.0551176 0.0536762 0.0535062 0.0529339 0.0536121 0.0551159 0.0537528 0.0550627 0.0536916 0.0536674 0.0550353 0.0533784 0.0536563 0.0535879 0.0550375 0.0533875 0.0535836 0.0537414 0.0534887 0.05509 0.0535417 0.0532714 0.0538173 0.0550341 0.0536348 0.0550621 0.0536455 0.0533954 0.0536584 0.0548579 0.053583 0.0535898 0.0537321 0.054829 0.0535389 0.0534918 0.0538071 0.0548172 0.0534687 0.0549015 0.0534965 0.0537787 0.0548569 0.0536702 0.0534447 0.053738 0.0548426 0.0534729 0.0534348 0.0538874 0.0547592 0.0535707 0.0533746 0.0537889 0.0547106 0.0533064 0.0538301 0.0547328 0.0533945 0.0548221 0.0538702 0.0535727 0.0534693 0.0547891 0.0532766 0.0533016 0.0539357 0.0547596 0.0533737 0.0534099 0.0548843 0.0540822 0.0531502 0.0532486 0.0549052 0.0540122 0.0533178 0.054854 0.0540228 0.0531717 0.053193 0.0539286 0.0549335 0.0532657 0.0535466 0.0539767 0.0548867 0.0534488 0.0532331 0.0540596 0.0549108 0.053354 0.0535735 0.0548022 0.0537401 0.0548371 0.0534677 0.0538104 0.0533652 0.0547872 0.0534727 0.053943 0.0533819 0.0547487 0.0538833 0.0534663 0.0533185 0.0548603 0.0538785 0.0533971 0.0534167 0.0548093 0.0538142 0.054643 0.0539414 0.0540159 0.0533057 0.0546638 0.053295 0.0540832 0.0545837 0.0532727 0.0540132 0.0533532 0.0546992 0.0532131 0.0539941 0.0547139 0.0533241 0.0546546 0.0541371 0.0517022 0.0545856 0.0540709 0.0531728 0.051849 0.054524 0.0532438 0.0541232 0.051845 0.053185 0.0544701 0.054143 0.0532543 0.0541825 0.0531906 0.0544063 0.0518541 0.054208 0.0530939 0.0516435 0.0541202 0.0545218 0.0541845 0.0530765 0.0516019 0.0545832 0.05315 0.0542616 0.0517125 0.0544504 0.0531028 0.0546927 0.0542991 0.0546354 0.0530278 0.0517409 0.0542639 0.0547656 0.0529908 0.0519981 0.0543513 0.0547168 0.0532435 0.0521051 0.0543151 0.0547251 0.0533237 0.0546627 0.0520668 0.054396 0.0546411 0.0531883 0.0541557 0.054588 0.0531581 0.0542027 0.0545311 0.0518308 0.0531053 0.0542358 0.0544773 0.0542806 0.0519201 0.0531207 0.0545799 0.0519748 0.0530492 0.0542016 0.0545169 0.054265 0.05304 0.0545322 0.0514913 0.0529861 0.0543069 0.0515036 0.0549799 0.0529191 0.0516653 0.0543567 0.0549428 0.0530247 0.0516799 0.0548925 0.0513757 0.05445 0.0529972 0.0549628 0.0543781 0.0528828 0.0550011 0.0514283 0.0544058 0.0549562 0.0528182 0.0515409 0.0549238 0.0543357 0.0529025 0.0517833 0.054842 0.0544813 0.0527777 0.0519623 0.0547833 0.0544317 0.0529348 0.0548195 0.0548735 0.0528474 0.0537981 0.0549068 0.0518772 0.0527878 0.0538625 0.0548518 0.0515893 0.0527433 0.0539357 0.0549824 0.0517327 0.0550048 0.0538207 0.0518125 0.0527918 0.0549345 0.0539113 0.0526592 0.0539704 0.0549907 0.0516603 0.0540101 0.053073 0.0550052 0.0540858 0.052994 0.0522305 0.0549446 0.0540571 0.053 0.0522458 0.054958 0.0529529 0.0541722 0.0549165 0.0541048 0.05286 0.0548727 0.0540401 0.0528823 0.0521095 0.0548284 0.0541679 0.0529651 0.0520883 0.054894 0.0539272 0.052205 0.0529123 0.0548661 0.0538642 0.0528052 0.0548431 0.053994 0.0523094 0.0547292 0.0527589 0.0538762 0.054684 0.0528668 0.0524331 0.05394 0.0547654 0.0526813 0.0547463 0.0540023 0.0524943 0.0528145 0.0548001 0.0546885 0.0528472 0.0539506 0.0547007 0.0527558 0.0540668 0.0526051 0.0546639 0.052753 0.0541378 0.0546228 0.0522477 0.0541854 0.0527163 0.0545905 0.0540731 0.0526147 0.0545595 0.0546371 0.0542017 0.0523566 0.0526459 0.0545264 0.0541551 0.0524568 0.052643 0.0545714 0.0542449 0.051939 0.0525333 0.0547783 0.0542979 0.0520695 0.0547094 0.0526542 0.0542409 0.0543287 0.0548097 0.0525205 0.054311 0.0520641 0.0547197 0.0524974 0.0544108 0.0519246 0.054762 0.0543759 0.0518155 0.0546567 0.0524223 0.0519722 0.0544906 0.0518811 0.0546235 0.0539976 0.0522034 0.0544554 0.0521913 0.0545659 0.0543847 0.0539618 0.0544567 0.0546614 0.0545134 0.0523223 0.0545898 0.0539265 0.0542564 0.0522944 0.053887 0.0542812 0.0545988 0.0521117 0.0543356 0.0540126 0.053801 0.0543042 0.0539997 0.0539476 0.0538704 0.0522072 0.0538967 0.054229 0.0512807 0.0538095 0.0540225 0.0513363 0.0543985 0.0538466 0.0539662 0.0543549 0.051479 0.0537076 0.0539577 0.0538332 0.0544667 0.0537594 0.0538365 0.0544077 0.0511362 0.0537284 0.053896 0.05121 0.0544162 0.053754 0.053602 0.0537644 0.0511839 0.0544694 0.0538842 0.0539031 0.0537974 0.0512351 0.0545533 0.0538238 0.0537138 0.0513542 0.053834 0.0545233 0.051507 0.0537879 0.0540726 0.0541025 0.0515177 0.0536851 0.054076 0.0541172 0.0541496 0.0540443 0.0536331 0.0541299 0.0516806 0.0539704 0.0536936 0.0541377 0.0515878 0.0535646 0.0541285 0.0541851 0.0536378 0.0514468 0.0541726 0.0541908 0.0535216 0.0542284 0.0540615 0.053602 0.0542053 0.0540525 0.0542299 0.0513982 0.0538954 0.0543236 0.0539708 0.0542623 0.0515409 0.0542904 0.0538755 0.051028 0.0542917 0.0510193 0.0540173 0.0542153 0.0511761 0.0539311 0.054195 0.0510907 0.054249 0.053934 0.0536913 0.0508456 0.0542619 0.0536883 0.0509535 0.05429 0.0536249 0.0543499 0.0536207 0.0509957 0.0535665 0.0543184 0.0513262 0.0543458 0.0537036 0.0513138 0.0543709 0.0537529 0.0514156 0.0544183 0.0536377 0.0543791 0.053505 0.0512076 0.0544134 0.0533777 0.0511369 0.0534458 0.0544354 0.0513377 0.053577 0.0543615 0.0535036 0.0517468 0.0543021 0.0535613 0.0543934 0.0518022 0.0543491 0.0534389 0.0516315 0.0534592 0.0543706 0.0516943 0.054399 0.0537801 0.0518168 0.054472 0.0536644 0.0543957 0.0517044 0.0537272 0.0544479 0.0544393 0.0519475 0.0538299 0.0544765 0.0519518 0.0537653 0.054485 0.0537025 0.0544787 0.0520507 0.0536005 0.05453 0.0518364 0.053544 0.054556 0.0534699 0.0544199 0.0535038 0.0544738 0.053591 0.0545109 0.053639 0.0545274 0.0535105 0.0545013 0.0542009 0.0544686 0.0542213 0.0545789 0.0541458 0.0545606 0.0545391 0.0542882 0.0534794 0.0545451 0.0541801 0.054229 0.0536644 0.0546261 0.0541734 0.0545935 0.0540906 0.0541064 0.0545864 0.053607 0.0540211 0.0545983 0.05352 0.0539575 0.0541101 0.0546357 0.0535782 0.0540408 0.0543179 0.0542867 0.0542639 0.0542883 0.0543218 0.054231 0.0543936 0.0535275 0.0543309 0.0534758 0.0543487 0.0543627 0.053409 0.0544187 0.0543385 0.0534655 0.0543826 0.0542345 0.0544489 0.0519621 0.053315 0.054177 0.0544795 0.0541212 0.0514588 0.0544364 0.053327 0.0540525 0.0515849 0.054493 0.053288 0.054179 0.0516968 0.0545605 0.0534049 0.0545139 0.0541199 0.0515669 0.0532279 0.0543803 0.0540566 0.0513585 0.0538831 0.0535005 0.054458 0.051571 0.0538494 0.0533385 0.0544168 0.0538062 0.0514687 0.0534173 0.0537741 0.054368 0.0516877 0.0534203 0.0539705 0.0518043 0.0544245 0.053904 0.0533642 0.0538542 0.0544845 0.0516021 0.0532913 0.053646 0.0545146 0.0532404 0.0536983 0.0544726 0.0516486 0.0531874 0.0545388 0.0535607 0.0532456 0.0517476 0.0545543 0.0536759 0.053123 0.0545839 0.0526028 0.0537405 0.0531465 0.05378 0.0546211 0.0527137 0.053699 0.0545447 0.0535956 0.0527617 0.0535932 0.0545895 0.0525915 0.0535903 0.0535642 0.0545563 0.0539894 0.0545767 0.0536043 0.052458 0.0546295 0.0539204 0.0535163 0.0526728 0.054623 0.053841 0.0534639 0.0525554 0.0546633 0.0535198 0.0540431 0.0528098 0.0534326 0.0547218 0.0539845 0.0528793 0.0533846 0.0546864 0.0539139 0.0527513 0.0533472 0.0546503 0.0537565 0.0528249 0.0533112 0.0546925 0.053641 0.0523836 0.0547073 0.0536734 0.0535346 0.0546219 0.0524984 0.0534607 0.053793 0.0546061 0.052282 0.0534133 0.0546758 0.0538821 0.0523833 0.0538195 0.0533181 0.0523972 0.0546478 0.0537324 0.0546621 0.0526275 0.0534079 0.0547073 0.0537036 0.0533371 0.0526922 0.0547779 0.0533982 0.0532463 0.0524887 0.0547388 0.0533003 0.0533059 0.0525229 0.0547696 0.0532352 0.0532388 0.0526232 0.0548105 0.0531827 0.0532347 0.0525613 0.0547366 0.05333 0.0531863 0.0547759 0.053028 0.0533081 0.0530625 0.0532646 0.0530783 0.0548194 0.0533732 0.0530888 0.0545072 0.0529493 0.0530993 0.0532925 0.0545164 0.0530063 0.0529126 0.0531633 0.0545287 0.0529436 0.0530431 0.0545485 0.0532619 0.0531733 0.0529857 0.0545709 0.0531372 0.0532296 0.0531733 0.0546099 0.0531785 0.0531398 0.0546543 0.0531745 0.0531122 0.0532327 0.0545489 0.0530877 0.0530356 0.0546095 0.0532909