# vtk DataFile Version 3.0
vtk output
ASCII
DATASET UNSTRUCTURED_GRID
POINTS 36320 float
0 0 0
1 0 0
1 1 0
0 1 0
0 0 0
0 0 0
1 0 0
1 1 0
0 1 0
0 0 0
0 0 0
1 0 0
1 1 0
0 1 0
0 0 0
0 0 0
1 0 0
1 1 0
0 1 0
0 0 0
0 0 0
1 0 0
1 1 0
0 1 0
0 0 0
0 0 0
1 0 0
1 1 0
0 1 0
0 0 0
0 0 0
1 0 0
1 1 0
0 1 0
0 0 0
0 0 0
1 0 0
1 1 0
0 1 0
0 0 0
0 0 0
1 0 0
1 1 0
0 1 0
0 0 0
0 0 0
1 0 0
1 1 0
0 1 0
0 0 0
0 0 0
1 0 0
1 1 0
0 1 0
0 0 0
0 0 0
1 0 0
1 1 0
0 1 0
0 0 0
0 0 0
1 0 0
1 1 0
0 1 0
0 0 0
0.19052 0 0
1 0 0
1 1 0
0.773743 1 0
0.605021 0.722198 0
0.25537 0.114525 0
0.19052 0 0
0 0 0
1 0 0
1 1 0
0 1 0
0 0 0
0 0 0
1 0 0
1 1 0
0 1 0
0 0 0
0 0 0
1 0 0
1 1 0
0 1 0
0 0 0
0 0 0
1 0 0
1 1 0
0 1 0
0 0 0
0 0 0
1 0 0
1 1 0
0 1 0
0 0 0
0 0 0
1 0 0
1 1 0
0 1 0
0 0 0
0 0 0
1 0 0
1 1 0
0 1 0
0 0 0
0 0 0
1 0 0
1 1 0
0 1 0
0 0 0
0 0 0
1 0 0
1 1 0
0 1 0
0 0 0
0 0 0
1 0 0
1 1 0
0 1 0
0 0 0
0 0 0
1 0 0
1 1 0
0 1 0
0 0 0
0 0 0
1 0 0
1 1 0
0 1 0
0 0 0
0.415582 0.226529 0
0.408961 0.214489 0
0.52311 0 0
1 0 0
1 1 0
0.878315 1 0
0.599876 0.543792 0
0.428124 0.248546 0
0.415582 0.226529 0
0 0 0
1 0 0
1 1 0
0 1 0
0 0 0
0 0 0
1 0 0
1 1 0
0 1 0
0 0 0
0 0 0
1 0 0
1 1 0
0 1 0
0 0 0
0 0 0
1 0 0
1 1 0
0 1 0
0 0 0
0 0 0
1 0 0
1 1 0
0 1 0
0 0 0
0 0 0
1 0 0
1 1 0
0 1 0
0 0 0
0.245298 0 0
1 0 0
1 1 0
0.823822 1 0
0.617759 0.656583 0
0.245298 0 0
0 0 0
1 0 0
1 1 0
0 1 0
0 0 0
0 0 0
1 0 0
1 1 0
0 1 0
0 0 0
0 0 0
1 0 0
1 1 0
0 1 0
0 0 0
0 0 0
1 0 0
1 1 0
0 1 0
0 0 0
0 0 0
1 0 0
1 1 0
0 1 0
0 0 0
0.271094 0 0
1 0 0
1 1 0
0.850994 1 0
0.390094 0.213275 0
0.314646 0.0793609 0
0.271094 0 0
0 0 0
1 0 0
1 1 0
0 1 0
0 0 0
0 0 0
1 0 0
1 1 0
0 1 0
0 0 0
0 0 0
1 0 0
1 1 0
0 1 0
0 0 0
0 0 0
1 0 0
1 1 0
0 1 0
0 0 0
0 0 0
1 0 0
1 1 0
0 1 0
0 0 0
0 0 0
1 0 0
1 1 0
0 1 0
0 0 0
0 0 0
1 0 0
1 1 0
0 1 0
0 0 0
0.433226 0.194357 0
0.303201 0 0
1 0 0
1 0.978853 0
0.702241 0.573622 0
0.433226 0.194357 0
0 0 0
1 0 0
1 1 0
0 1 0
0 0 0
0 0 0
1 0 0
1 1 0
0 1 0
0 0 0
0 0 0
1 0 0
1 1 0
0 1 0
0 0 0
0.303609 0 0
1 0 0
1 1 0
0.946294 1 0
0.751383 0.708558 0
0.632502 0.525152 0
0.303609 0 0
0 0 0
1 0 0
1 1 0
0 1 0
0 0 0
0 0 0
1 0 0
1 1 0
0 1 0
0 0 0
0 0 0
1 0 0
1 1 0
0 1 0
0 0 0
0 0 0
1 0 0
1 1 0
0 1 0
0 0 0
0 0 0
1 0 0
1 1 0
0 1 0
0 0 0
0.314078 0 0
1 0 0
1 0.942576 0
0.347711 0.0478082 0
0.314078 0 0
0 0 0
1 0 0
1 1 0
0 1 0
0 0 0
0 0 0
1 0 0
1 1 0
0 1 0
0 0 0
0 0 0
1 0 0
1 1 0
0 1 0
0 0 0
0 0 0
1 0 0
1 1 0
0 1 0
0 0 0
0.435931 0.181217 0
0.322692 0 0
1 0 0
1 1 0
0.988884 1 0
0.696256 0.574216 0
0.435931 0.181217 0
0 0 0
1 0 0
1 1 0
0 1 0
0 0 0
0 0 0
0.0105164 0 0
0 0.0124902 0
0 0 0
0.555997 0 0
1 0 0
1 1 0
0.0876694 1 0
0.555997 0 0
0 0 0
0.00886098 0 0
0 0.00967557 0
0 0 0
0 0 0
0.245851 0 0
0.929739 0.478536 0
1 0.530147 0
1 1 0
0 1 0
0 0 0
0.437819 0.172049 0
0.33483 0 0
1 0 0
1 1 0
0.973243 1 0
0.693074 0.574532 0
0.437819 0.172049 0
0 0 0
0.0189499 0 0
0 0.0192282 0
0 0 0
0 0 0
0.29068 0 0
0.929421 0.421264 0
1 0.468917 0
1 1 0
0 1 0
0 0 0
0 0 0
1 0 0
1 1 0
0 1 0
0 0 0
0 0 0
1 0 0
1 1 0
0 1 0
0 0 0
0.327537 0 0
1 0 0
1 0.966813 0
0.351349 0.0354201 0
0.327537 0 0
0 0 0
0.0156728 0 0
0 0.0128388 0
0 0 0
0 0 0
1 0 0
1 1 0
0 1 0
0 0 0
0 0 0
1 0 0
1 1 0
0 1 0
0 0 0
0 0 0
1 0 0
1 1 0
0 1 0
0 0 0
0 0 0
0.0128766 0 0
0 0.00999069 0
0 0 0
0.426674 0 0
1 0 0
1 0.575055 0
0.929279 0.507748 0
0.669926 0.251628 0
0.448253 0.0231382 0
0.426674 0 0
0 0 0
0.0661404 0 0
0.0105451 0.0765824 0
0 0.0896213 0
0 0 0
0 0 0
0.0683662 0 0
0.267891 0.142941 0
0.750864 0.497508 0
1 0.688278 0
1 1 0
0 1 0
0 0 0
0.326942 0 0
1 0 0
1 0.576249 0
0.951793 0.53605 0
0.326942 0 0
0 0.00689758 0
0.741915 0.447497 0
1 0.607294 0
1 1 0
0 1 0
0 0.00689758 0
0.396044 0 0
1 0 0
1 0.590061 0
0.97221 0.564255 0
0.631404 0.235831 0
0.396044 0 0
0 0 0
0.0274172 0 0
0 0.0291886 0
0 0 0
0 0.0648149 0
0.672813 0.410235 0
0.754774 0.453822 0
1 0.588972 0
1 1 0
0 1 0
0 0.0648149 0
0.491622 0 0
1 0 0
1 0.587771 0
0.791866 0.36459 0
0.773086 0.34321 0
0.592932 0.126895 0
0.491622 0 0
0 0 0
0.0467579 0 0
0 0.0588497 0
0 0 0
0 0 0
0.0404809 0 0
0.249321 0.144201 0
0.750361 0.498612 0
1 0.682882 0
1 1 0
0 1 0
0 0 0
0.308138 0 0
1 0 0
1 0.595631 0
0.830328 0.457068 0
0.308138 0 0
0.369212 0 0
1 0 0
1 0.610567 0
0.920748 0.535863 0
0.369212 0 0
0 0.0884545 0
0.182553 0.183632 0
0.717097 0.47174 0
1 0.630065 0
1 1 0
0 1 0
0 0.0884545 0
0 0 0
0.036369 0 0
0 0.0357142 0
0 0 0
0.450237 0 0
1 0 0
1 0.596806 0
0.913476 0.507492 0
0.671233 0.247549 0
0.453915 0.00428063 0
0.450237 0 0
0 0 0
0.00481713 0 0
0 0.00444116 0
0 0 0
0 0.0374221 0
0.2766 0.204037 0
0.772986 0.512302 0
1 0.661638 0
1 1 0
0 1 0
0 0.0374221 0
0.549932 0 0
1 0 0
1 0.617368 0
0.778739 0.329658 0
0.549932 0 0
0 0 0
0.009967 0 0
0 0.0081457 0
0 0 0
0 0 0
0.0910258 0 0
0.395228 0.198183 0
1 0.604869 0
1 1 0
0 1 0
0 0 0
0.50513 0 0
1 0 0
1 0.607085 0
0.788623 0.366061 0
0.770626 0.34426 0
0.594223 0.118719 0
0.50513 0 0
0 0 0
0.0320704 0 0
0 0.0300534 0
0 0 0
0 0 0
0.0270302 0 0
0 0.0234658 0
0 0 0
0 0.00498119 0
0.817366 0.477164 0
0.824002 0.481128 0
1 0.590299 0
1 1 0
0 1 0
0 0.00498119 0
0.534687 0 0
1 0 0
1 0.609182 0
0.775371 0.330649 0
0.541003 0.00897502 0
0.534687 0 0
0 0 0
0.0541431 0 0
0 0.0625028 0
0 0 0
0 0 0
0.0171515 0 0
0 0.0161412 0
0 0 0
0 0 0
0.0620988 0 0
1 0.527941 0
1 1 0
0 1 0
0 0 0
0.53021 0 0
1 0 0
1 0.529571 0
0.988924 0.518016 0
0.556618 0.0308331 0
0.53021 0 0
0 0 0
0.0520006 0 0
0 0.0565728 0
0 0 0
0 0.0373413 0
0.742754 0.444455 0
1 0.591734 0
1 1 0
0 1 0
0 0.0373413 0
0.556316 0 0
1 0 0
1 0.640334 0
0.773827 0.331104 0
0.556316 0 0
0 0 0
0.0666055 0 0
0.00433283 0.0786627 0
0 0.0836079 0
0 0 0
0.463478 0 0
1 0 0
1 0.614695 0
0.90153 0.507298 0
0.671622 0.246335 0
0.463478 0 0
0 0 0
0.0942501 0 0
0 0.113095 0
0 0 0
0 0.0957133 0
0.672865 0.41015 0
0.755157 0.450051 0
1 0.573364 0
1 1 0
0 1 0
0 0.0957133 0
0 0 0
0.082086 0 0
0 0.0870427 0
0 0 0
0.562592 0 0
1 0 0
1 0.640573 0
0.776553 0.330301 0
0.562592 0 0
0 0 0
0.0478959 0 0
0.383826 0.201848 0
1 0.584018 0
1 1 0
0 1 0
0 0 0
0 0 0
0.0806741 0 0
0 0.0804149 0
0 0 0
0 0 0
0.122874 0 0
0.102511 0.0258107 0
0 0.142016 0
0 0 0
0 0.148062 0
0.549059 0.417238 0
0.764798 0.526714 0
1 0.649525 0
1 1 0
0 1 0
0 0.148062 0
0.180948 0 0
1 0 0
1 0.615891 0
0.797512 0.471391 0
0.599169 0.323762 0
0.180948 0 0
0 0 0
0.0778185 0 0
0 0.0720536 0
0 0 0
0 0.107309 0
0.158586 0.186205 0
0.71706 0.473366 0
1 0.624608 0
1 1 0
0 1 0
0 0.107309 0
0 0 0
0.0938761 0 0
0 0.107026 0
0 0 0
0 0 0
0.121849 0 0
0.102899 0.0257393 0
0 0.150346 0
0 0 0
0 0.165311 0
0.217107 0.257319 0
0.980374 0.593401 0
1 0.602536 0
1 1 0
0 1 0
0 0.165311 0
0 0.165398 0
0.545869 0.419347 0
0.763953 0.524427 0
1 0.641631 0
1 1 0
0 1 0
0 0.165398 0
0 0 0
0.351132 0 0
0 0.179117 0
0 0 0
0.513049 0.124252 0
0.579665 0 0
1 0 0
1 0.888149 0
0.740547 0.495749 0
0.733184 0.484227 0
0.539271 0.169088 0
0.513049 0.124252 0
0 0.136865 0
0.685394 0.532145 0
0.720281 0.553211 0
1 0.729013 0
1 1 0
0 1 0
0 0.136865 0
0 0 0
0.384164 0 0
0.321651 0.0365851 0
0 0.215782 0
0 0 0
0.343614 0 0
1 0 0
1 0.615608 0
0.825269 0.45997 0
0.343614 0 0
0 0.139891 0
0.230558 0.2602 0
0.741976 0.536105 0
1 0.679943 0
1 1 0
0 1 0
0 0.139891 0
0 0 0
0.281398 0 0
0.0914339 0.0574266 0
0 0.0825946 0
0 0 0
0 0.188007 0
0.542233 0.42175 0
0.762354 0.520105 0
1 0.629757 0
1 1 0
0 1 0
0 0.188007 0
0 0 0
0.412941 0 0
0.35515 0.03876 0
0 0.265241 0
0 0 0
0.446557 0.338482 0
0.603886 0 0
1 0 0
1 1 0
0.979174 1 0
0.790714 0.770641 0
0.446557 0.338482 0
0 0.00609586 0
0.219954 0.146193 0
0.752632 0.493619 0
1 0.662241 0
1 1 0
0 1 0
0 0.00609586 0
0 0 0
0.348719 0 0
0.178411 0.06531 0
0 0.127727 0
0 0 0
0.199498 0 0
1 0 0
1 0.628935 0
0.792739 0.474208 0
0.599108 0.323398 0
0.199498 0 0
0 0.0736035 0
0.247759 0.209491 0
0.773515 0.50673 0
1 0.642833 0
1 1 0
0 1 0
0 0.0736035 0
0.441945 0 0
1 0 0
1 0.630658 0
0.93652 0.562343 0
0.634033 0.223417 0
0.441945 0 0
0 0 0
0.179108 0 0
0 0.0417548 0
0 0 0
0 0.0633161 0
0.744823 0.436958 0
1 0.570988 0
1 1 0
0 1 0
0 0.0633161 0
0.529881 0 0
1 0 0
1 0.634967 0
0.786828 0.366876 0
0.770109 0.344481 0
0.59726 0.099486 0
0.529881 0 0
0 0 0
0.325578 0 0
0.141291 0.0619455 0
0 0.105175 0
0 0 0
0 0.163855 0
0.708522 0.48996 0
0.739941 0.505172 0
1 0.636263 0
1 1 0
0 1 0
0 0.163855 0
0.570628 0 0
1 0 0
1 0.664225 0
0.773025 0.33134 0
0.570628 0 0
0 0 0
0.436985 0 0
0.150201 0.187105 0
0 0.280239 0
0 0 0
0.300068 0 0
1 0 0
1 0.627211 0
0.916581 0.554162 0
0.300068 0 0
0 0 0
0.0829836 0 0
0.453558 0.283404 0
0.813196 0.57427 0
1 0.730551 0
1 1 0
0 1 0
0 0 0
0 0 0
0.243528 0 0
0.0429073 0.0530282 0
0 0.0633201 0
0 0 0
0.382283 0 0
1 0 0
1 0.636758 0
0.821683 0.462026 0
0.382283 0 0
0 0 0
0.312557 0 0
0 0.0946651 0
0 0 0
0.461743 0 0
1 0 0
1 0.637482 0
0.933255 0.562169 0
0.636259 0.212906 0
0.461743 0 0
0 0 0
0.283549 0 0
0 0.0959052 0
0 0 0
0.474408 0 0
1 0 0
1 0.655311 0
0.921092 0.561517 0
0.637047 0.209187 0
0.474408 0 0
0 0 0
0.37229 0 0
0 0.139076 0
0 0 0
0 0.407114 0
0.0927304 0.369333 0
0.395187 0.250404 0
0.446003 0.286865 0
0.815894 0.567576 0
1 0.712229 0
1 1 0
0 1 0
0 0.407114 0
0 0 0
0.441532 0 0
0 0.178934 0
0 0 0
0.63901 0 0
1 0 0
1 0.710179 0
0.826535 0.379309 0
0.63901 0 0
0 0 0
0.420351 0 0
0 0.200687 0
0 0 0
0 0 0
0.205634 0 0
0.881576 0.491578 0
0.901158 0.506195 0
1 0.581852 0
1 1 0
0 1 0
0 0 0
0.680173 0 0
1 0 0
1 0.779072 0
0.814095 0.345265 0
0.716865 0.100369 0
0.680173 0 0
0 0 0
0.0439008 0 0
0.422402 0.190129 0
0.868568 0.422507 0
1 0.493024 0
1 1 0
0 1 0
0 0 0
0.580731 0 0
1 0 0
1 0.601992 0
0.833034 0.37767 0
0.580731 0 0
0 0.0431177 0
0.817286 0.470883 0
0.824084 0.474572 0
1 0.573934 0
1 1 0
0 1 0
0 0.0431177 0
0.552215 0 0
1 0 0
1 0.247351 0
0.757175 0.118236 0
0.552215 0 0
0.649341 0 0
1 0 0
1 0.641891 0
0.775843 0.243471 0
0.699403 0.098714 0
0.649341 0 0
0 0 0
0.182101 0 0
0.882514 0.486872 0
0.902074 0.500836 0
1 0.572563 0
1 1 0
0 1 0
0 0 0
0.650589 0 0
1 0 0
1 0.749837 0
0.821715 0.379056 0
0.650589 0 0
0.607317 0 0
1 0 0
1 0.178989 0
0.607317 0 0
0.666489 0 0
1 0 0
1 0.56355 0
0.961414 0.502521 0
0.666489 0 0
0 0 0
[...]
CELL_DATA 6318
FIELD FieldData 3
weight 1 6318 float
 0.93432 0.921734 0.927951 0.928107 0.928238 0.93449 0.934166 0.940632 0.940453 0.947033 0.946809 0.940527 0.946712 0.952953 0.94074 0.940484 0.946916 0.946754 0.953209 0.95931 0.953261 0.953267 0.953268 0.965453 0.959522 0.965838 0.947022 0.959523 0.953208 0.965609 0.959402 0.959536 0.965449 0.953271 0.940574 0.940833 0.940784 0.946693 0.94681 0.946735 0.946668 0.940687 0.940425 0.95298 0.946756 0.946922 0.953246 0.940485 0.959498 0.953137 0.965446 0.946702 0.959242 0.965705 0.95945 0.959323 0.952876 0.940755 0.953253 0.959476 0.96539 0.965554 0.947083 0.96584 0.727914 0.952934 0.728106 1.17187 0.953091 0.721932 1.17196 1.15923 1.16541 0.947085 0.72816 1.16556 1.17176 1.16562 0.728217 0.890795 0.728314 1.17799 0.890639 1.17171 0.896848 0.709358 1.17804 0.890787 0.715844 1.17817 0.903031 0.903071 1.18441 0.715502 0.896831 0.703281 1.18439 0.890804 0.70943 1.17174 0.897116 0.715601 0.71557 1.17809 0.890462 0.72188 0.72176 1.17816 0.890447 0.721819 1.17824 0.896957 0.72804 0.903141 0.728206 1.18436 0.722027 0.896893 1.18444 0.722105 0.728311 1.19041 0.909289 0.72176 1.18428 0.728176 0.72817 1.19058 1.19057 0.702997 0.909225 1.19683 0.703047 0.909589 1.19702 0.709449 1.19711 0.709417 0.915663 1.18427 0.715626 0.915421 1.1908 0.909507 0.709412 1.19079 0.903255 0.715486 1.19687 0.903209 0.703111 0.915745 1.19062 0.709333 0.915582 0.709589 0.909355 0.703146 0.915853 0.715382 1.19666 0.71586 0.890504 0.721657 1.17819 0.8846 1.17811 0.896698 1.18454 0.728334 0.890454 1.18422 0.89671 0.721653 0.884447 1.17832 1.17205 0.884512 0.734283 1.17168 0.728257 0.884425 1.17834 0.87815 0.734145 0.896942 1.18446 0.727996 0.890685 0.721665 0.890444 1.17808 0.903326 0.721732 1.19712 0.90935 0.721967 0.902998 1.19064 0.909595 0.909493 0.728169 1.19062 0.734213 1.19696 0.902918 0.728118 1.19675 0.897003 0.734428 1.19081 0.896666 0.703083 1.18429 0.709565 0.890656 1.18425 0.702916 0.909227 0.715613 1.19696 0.909139 1.19056 0.715427 0.902992 1.19694 0.715689 0.902942 0.928279 0.921871 0.703237 1.19084 0.709592 0.922117 1.19697 0.971951 0.934505 0.978003 0.972058 0.972063 0.928304 0.715793 0.977884 0.978308 0.921837 0.978243 0.709471 0.971849 0.971909 0.978139 0.921674 0.715688 0.984251 0.977937 0.921858 0.984486 0.72803 0.927885 0.928035 0.927991 0.98428 0.728282 0.99047 0.940755 0.990718 0.721998 0.996991 0.997086 0.99057 0.984323 0.940556 0.734539 0.984416 0.997105 0.990496 0.934528 0.990563 0.978254 0.734167 0.972118 0.971828 0.984194 0.94682 0.978299 0.734371 0.972114 0.97183 0.971842 0.946697 0.978246 0.721644 0.977896 0.984294 0.978038 0.990459 0.940384 0.728231 0.98432 0.934429 0.996857 0.990676 0.996814 0.721791 0.984602 0.990477 0.98421 0.722035 0.940455 0.990809 0.996889 0.990607 1.00333 0.73443 1.00337 1.00337 1.00937 0.728316 1.00937 0.996746 0.934172 1.00326 0.734409 0.997049 1.0092 1.00325 0.934323 1.0095 1.01556 1.01569 0.740411 1.01546 1.00962 1.02192 1.02198 1.01538 1.01565 1.02196 0.746993 0.946788 1.02211 1.02179 0.940598 1.00303 1.00328 0.996989 1.00924 0.940436 0.740491 1.00312 1.00934 0.996739 0.946719 1.00292 1.00955 1.00336 0.753136 1.00943 0.915466 1.01576 1.01566 1.01587 0.915687 1.02171 0.746832 1.02163 1.02809 1.01555 1.00953 0.915779 1.01561 0.753375 1.02169 1.02171 1.02163 0.92197 0.965682 0.96582 0.740708 0.971935 0.978086 0.927946 0.978229 0.97164 0.740729 0.965844 0.921921 0.965663 0.971805 0.978139 0.972025 0.740874 0.978124 0.978049 0.915469 0.984167 0.74694 0.984541 0.99074 0.990412 0.996741 0.984237 0.75297 0.984577 0.984219 0.909185 0.990749 0.990736 0.753031 0.990681 0.971896 0.965672 0.972034 0.965391 0.915761 0.971715 0.747061 0.978111 0.965851 0.965671 0.965558 0.97175 0.921643 0.752889 0.972048 0.971928 0.978342 0.984425 0.921868 0.984383 0.990504 0.765856 0.99072 0.984221 0.978039 0.984301 0.922069 0.759466 0.978015 0.978144 0.990456 0.928294 0.990428 0.759458 0.990554 0.984554 0.996962 0.934196 1.00308 1.00317 1.00932 1.0094 1.00289 0.77164 0.996812 0.928154 0.997059 0.996812 1.00932 1.00317 1.0029 0.940516 1.0096 0.765624 1.01585 1.01566 1.02197 0.934612 1.02202 0.765393 1.02183 1.01565 1.00956 0.940465 1.01585 1.01571 0.771895 1.02183 1.02165 0.996922 0.934558 1.00307 0.765865 0.996861 0.928155 1.00929 0.759433 1.00316 1.00311 0.997044 0.996833 0.765667 0.934348 0.996728 1.00323 1.00318 1.01548 0.75923 1.00923 1.00941 1.0217 0.928333 1.01586 0.772076 1.01559 1.00925 1.00922 0.940646 1.01561 0.772053 1.02201 0.940381 1.01573 1.02824 0.734468 1.02825 1.03431 0.93449 0.734546 0.940686 1.03441 0.728067 1.03456 1.03413 0.72818 1.02797 1.02803 1.02799 0.734539 1.0404 1.04073 1.03449 1.04059 1.04676 0.740653 1.0407 0.946819 1.05291 1.04688 0.734338 1.05326 1.05325 1.04683 1.04703 1.04067 0.946706 1.05321 0.74064 1.05337 1.04708 1.03416 0.734393 1.02824 0.947089 1.02822 0.734277 1.04074 1.03432 1.03428 0.73415 1.02832 0.953266 1.028 0.740569 1.03452 1.03452 1.04059 0.95331 1.04709 0.7408 1.04682 1.04075 1.05326 1.05303 0.740426 1.05313 0.946653 1.04038 0.740726 1.04701 1.04081 1.04076 0.746824 0.953349 1.04682 1.05336 1.04674 0.740721 1.05931 1.06545 1.05954 0.746696 0.953092 1.06572 0.747 1.07169 1.06557 0.753293 1.07181 1.05956 1.05939 0.953242 0.752893 1.05949 1.06539 0.753253 1.07185 1.06568 0.959592 0.746861 1.07163 1.0719 1.07815 0.959233 1.07796 1.08449 0.746945 1.07797 1.08447 1.08418 0.753077 1.07835 0.959625 1.07808 1.08446 0.747059 1.08435 1.05926 1.05932 0.95297 1.06567 0.759212 1.06581 1.07189 1.06586 0.753304 0.965728 1.05915 1.05297 1.06552 0.759184 1.05956 1.07191 0.959547 1.06587 0.7531 1.05925 1.07796 0.971928 1.07164 0.734386 1.07187 1.07796 1.08442 0.740708 1.08415 0.965695 1.07826 1.08435 1.0779 0.965861 0.734398 1.07188 1.09067 1.07821 0.734259 0.971718 1.03437 1.02796 1.02794 0.747 1.02799 1.03449 1.04053 1.04067 0.747019 1.03451 0.959381 1.02809 1.02794 1.0344 1.03418 0.965593 0.746865 1.04693 1.04703 1.05315 1.05314 1.05328 0.74054 1.04072 0.965622 1.04669 0.734364 1.04087 1.05323 1.05335 0.740723 1.04695 0.971772 1.04663 1.02826 0.734383 1.02181 1.028 1.03413 0.740424 1.02819 1.03434 0.97211 0.746969 1.02808 1.02799 1.0221 0.952897 0.740867 1.03413 1.03433 1.03458 0.746631 1.04065 1.04048 0.959419 1.04705 0.753192 1.04044 1.05301 1.04688 1.05288 0.753229 1.0406 0.95298 1.04058 0.753127 1.04686 1.05311 0.75921 1.04667 0.965867 0.759141 0.959232 1.04697 1.05917 0.752955 1.05927 1.06582 1.0658 0.959184 0.753303 1.0595 1.05942 1.0594 1.06548 0.96553 0.759577 1.06559 1.06553 0.953102 0.759569 1.07206 1.07209 0.765751 1.0782 1.08414 1.07806 1.08436 1.078 0.759316 1.07178 1.07163 1.07207 0.959354 1.07798 0.702977 1.07827 1.08414 0.959281 1.05955 1.05923 1.06567 1.06543 1.05933 1.05333 0.709548 0.965811 0.715858 1.05933 0.715717 0.96582 0.709409 1.05333 0.971969 1.06559 0.715503 1.05957 0.971675 0.709308 1.06547 0.977915 0.702908 1.06577 1.07196 0.978174 1.072 1.07796 0.715466 0.971814 1.07182 0.709126 1.078 0.972026 0.715411 1.07826 0.965469 0.721915 1.08425 0.721905 0.971693 0.728155 1.07188 0.978161 0.728012 1.07166 0.734559 0.978344 1.07187 0.728144 1.07824 0.977894 0.734323 0.98415 1.08413 0.721653 1.07791 0.977934 0.965434 0.721683 0.965765 0.971633 0.722123 0.965511 0.728255 0.971664 0.977977 0.972014 0.728323 0.971844 0.959151 0.978102 0.965771 0.959603 0.734127 0.965808 0.972051 0.984348 0.734244 0.978321 0.978354 0.703316 0.98433 0.984175 0.984515 0.703122 0.98446 0.978118 0.709329 0.97169 0.98458 0.702957 0.978071 0.70921 0.984601 0.978203 0.715839 0.978181 0.984621 0.715412 0.715429 0.959469 0.702949 0.984506 0.70292 0.709495 0.715691 0.953263 0.978294 0.709434 0.709464 0.959517 0.715708 0.990384 0.965779 0.728086 0.984243 0.721858 0.971974 0.721749 0.728078 0.990527 0.965436 0.728299 0.734387 0.99047 0.959204 0.734207 0.997112 0.728339 0.990504 0.959427 0.722007 0.990538 0.722091 0.996705 0.953052 0.728232 1.00315 0.734422 0.996693 0.734483 0.959549 1.00303 0.734127 0.997041 0.740646 0.965675 0.740717 0.965756 0.996706 0.746729 0.977911 0.746765 0.746916 0.996703 0.971892 0.746706 1.00293 0.978215 0.74082 0.984262 0.740585 0.984168 1.00313 0.740624 0.972024 0.74701 1.00307 0.971835 0.753072 0.977918 0.746727 0.984266 0.965598 0.753365 0.984255 0.971772 0.753265 0.753311 0.990668 0.978126 0.765496 0.984512 0.759215 0.977935 0.759136 0.990418 0.978089 0.765776 0.99066 0.996692 0.759422 0.984589 0.990771 0.759218 1.00304 0.990739 0.753344 1.00306 0.997017 0.990828 0.990445 0.759317 0.990813 0.765544 0.996958 0.997109 0.765863 0.990499 0.990389 0.759295 1.00333 0.996645 0.740483 1.00316 0.746791 0.996653 0.996906 0.740773 1.00925 1.00925 0.996769 1.01574 1.02211 0.752882 1.01578 1.01574 0.752928 1.00322 0.747101 1.00331 1.00957 0.753083 1.00938 1.00924 1.0094 1.01586 0.740782 1.00933 1.00302 0.740586 1.01555 0.997095 0.746789 0.990431 1.00308 0.740575 1.0093 1.00305 0.990536 1.0092 0.953069 0.997091 0.996996 0.959415 0.996981 0.953088 0.984322 0.959507 0.990751 0.959586 0.984247 0.965825 0.965816 0.984245 0.997121 0.959503 0.990541 0.965852 0.990784 0.99665 0.959354 1.0033 1.00923 0.965551 1.00295 0.971762 1.01557 1.0154 0.965529 1.00914 0.971957 1.01553 1.00324 1.00337 1.00335 0.971934 1.00954 1.00915 0.978323 0.953043 0.953243 0.978029 0.953016 0.971976 0.959268 0.978334 0.965592 0.959255 0.971986 0.965571 0.978274 0.953362 0.98414 0.953346 0.984289 0.959593 0.947101 0.959477 0.959508 0.96584 0.965434 0.959233 0.965439 0.971647 0.965494 0.965721 0.95962 0.971947 0.971753 0.959197 0.971903 0.978138 0.971898 0.971925 0.977897 0.984429 0.965426 0.990598 0.984276 0.971765 0.984487 0.978055 0.977943 0.97833 0.984405 0.978001 0.984352 0.990592 0.978021 0.978175 0.990715 0.96578 0.984305 0.971965 0.984361 0.965514 0.984473 0.978329 0.996876 0.978057 0.997084 0.972088 0.990752 0.947007 0.997095 0.990638 0.952978 0.990765 0.990843 0.946882 0.996725 0.959447 0.996695 1.00327 0.953278 1.00303 1.00925 0.95939 1.01556 1.01545 0.947056 1.00918 1.00288 0.947091 1.0031 1.00932 0.946894 1.00309 0.940438 1.01581 1.01539 0.953038 1.0095 1.01574 0.959526 0.990732 0.953173 0.990819 0.996766 0.953178 0.996858 0.965759 0.99057 0.996707 0.996856 0.996785 1.00303 0.965504 1.0033 1.0032 1.00333 0.971871 1.00947 0.971871 1.00303 1.01559 0.971717 1.00935 0.965441 1.01585 1.00927 1.00962 1.00937 0.959412 1.01568 1.01567 0.959319 1.01549 0.971646 1.00334 0.96539 1.00948 1.00946 0.965638 1.00959 0.984457 1.01583 0.990768 1.01558 0.984135 1.00922 0.990509 1.01562 0.996728 0.996923 1.00914 0.984528 1.01566 1.02202 0.98461 1.01586 0.984447 1.0217 0.997042 1.02199 1.02198 0.990526 1.0283 0.990501 1.02828 1.03448 0.990642 1.02788 1.00333 1.02175 1.02811 1.00297 1.02809 1.0096 1.03424 1.00918 1.03436 1.00922 1.03449 1.00334 1.01549 0.996968 1.0092 0.996922 1.01547 1.02165 1.00326 1.00926 1.02173 1.01561 1.0093 1.02212 1.00298 1.01574 1.00937 1.02172 0.978209 1.02833 0.978085 1.02201 1.02798 0.978111 1.03444 0.990577 1.03445 1.02812 0.984468 1.04068 0.990727 1.0346 1.02788 0.984197 1.02805 0.971752 1.03419 0.978007 1.04077 0.971942 0.984515 1.03455 0.97815 1.04078 0.984354 1.0407 0.984433 1.03413 1.04049 0.996771 1.04041 0.996958 1.04082 0.99681 1.04678 1.00295 1.04701 1.00297 1.04664 0.990862 1.04664 0.990634 1.04086 0.990454 1.0407 1.00299 1.05335 0.997034 1.05292 1.04684 0.997102 1.00313 1.05334 1.02803 1.02195 1.05289 1.0221 1.05336 1.02792 1.0592 1.03439 1.06585 1.02791 1.02207 1.05942 1.05914 1.02194 1.06587 1.02816 1.0595 1.03451 1.05925 1.02789 1.06582 1.0657 1.03432 1.04703 1.03461 1.04051 1.04042 1.04677 1.04691 1.0529 1.04087 1.0532 1.04672 1.04699 1.04038 1.04697 1.0405 1.0467 1.03423 1.05315 1.04667 1.05305 1.04706 1.05295 1.04059 1.05962 1.04671 1.06576 1.02168 1.05914 1.02171 1.05942 1.02176 1.07183 1.02799 1.07166 1.02809 1.06559 1.02826 1.07175 1.02173 1.05919 1.01551 1.01558 1.05953 1.02834 1.06542 1.02207 1.0656 1.07205 1.02802 1.07175 1.02203 1.06578 1.04055 1.01582 1.03452 1.02184 1.03438 1.02169 1.0468 1.02811 1.04664 1.02163 1.04665 1.02807 1.04068 1.02212 1.03448 1.0343 1.02208 1.03427 1.02814 1.04071 1.03456 1.0408 1.02827 1.04063 1.02826 1.05302 1.03416 1.05301 1.03444 1.05913 1.04045 1.06562 1.04084 1.0344 1.05921 1.03454 1.05298 1.04085 1.05322 1.04673 1.05333 1.04054 1.04704 1.05936 1.05915 1.04062 1.06553 1.02205 1.05934 1.02209 1.02807 1.06539 1.02821 1.07803 1.02818 1.07211 1.03439 1.08425 1.02173 1.02192 1.07822 1.02171 1.02795 1.07194 1.03416 1.07791 1.06568 1.03461 1.07199 1.04062 1.06582 1.03428 1.08427 1.07792 1.03449 1.07821 1.0406 1.07163 1.04077 1.05306 1.04698 1.05305 1.04676 1.05333 1.04081 1.0593 1.04055 1.05917 1.04704 1.06542 1.04685 1.0596 1.04668 1.05308 1.04684 1.05337 1.0468 1.04677 1.05334 1.04682 1.0529 1.05932 1.05953 1.05962 1.05947 1.05325 1.0717 1.05304 1.07199 1.05309 1.06581 1.05332 1.04699 1.07825 1.05946 1.07208 1.05916 1.07807 1.05961 1.07194 1.06546 1.06585 1.0655 1.06561 1.07207 1.06553 1.07164 1.0783 1.07174 1.06565 1.07197 1.06571 1.07797 1.07182 1.0157 1.06571 1.01577 1.07189 1.02212 1.07813 1.02169 1.07812 1.01559 1.07209 1.05317 1.01566 1.05914 1.01538 1.05324 1.05956 1.00955 1.06564 1.02172 1.05306 1.02193 1.05296 1.05302 1.02183 1.05915 1.02834 1.06565 1.03448 1.05918 1.02798 1.05917 1.02793 1.07195 1.0346 1.06542 1.07185 1.04046 1.07197 1.04046 1.07795 1.03424 1.07809 1.07797 1.02821 1.06576 1.02791 1.03415 1.07164 1.0406 1.06587 1.03449 1.07209 1.00942 1.07835 1.01552 1.07823 0.965813 1.00922 0.965741 0.971786 1.02185 0.96577 0.971878 0.972074 1.01568 0.977962 0.965565 1.02207 0.971849 0.965474 0.978158 1.01572 0.971937 0.97796 0.971993 1.00316 0.97833 0.978247 0.98416 1.00959 0.984596 0.984157 0.990821 1.00926 0.99083 0.990516 0.984285 1.01572 0.98442 0.990844 1.00934 0.990563 0.96563 0.972097 1.0156 0.96538 0.971698 0.978228 1.02791 0.978236 0.971907 0.965721 1.02827 0.971765 0.971752 1.02196 0.977928 0.977954 0.98433 1.03431 0.984579 0.984279 0.990589 1.03458 0.990391 0.996962 0.990842 1.03446 0.984323 0.978223 1.02206 0.984283 0.984156 0.990566 1.02209 0.990709 0.997065 1.02837 0.997065 0.997027 1.02794 1.00317 1.00293 0.996835 1.03446 1.00293 0.996883 1.00918 1.02802 1.00314 1.00301 1.00952 1.04039 1.01574 1.0094 1.01577 1.04687 1.01577 1.02168 1.01577 1.00925 1.04693 1.00947 1.01577 1.02203 1.05915 1.02196 1.02211 0.996674 0.996708 1.05942 1.00301 1.00941 1.00304 1.05321 1.0033 1.0096 1.00304 1.04688 0.996877 1.00336 0.997 1.04044 1.00932 1.00952 1.01586 1.0467 1.00926 1.01575 1.02208 1.04706 1.02185 1.02207 1.01553 1.0533 1.01568 1.02172 1.01541 1.02179 1.05301 1.02819 0.971846 0.971956 1.05328 0.965792 0.978282 0.978124 0.972003 1.05916 0.978291 0.971696 0.984279 1.06556 0.977883 0.978147 0.984465 0.990794 0.984324 1.06567 0.996965 0.996757 0.990755 1.06586 0.990473 0.984536 0.990472 1.07188 0.996765 0.990438 0.996673 1.07179 0.978213 0.971824 0.971991 1.07192 0.971809 0.984263 0.984322 1.05958 0.977965 0.971808 0.977988 1.05933 0.971648 0.978287 0.98433 1.07176 0.984513 0.990453 0.984378 1.06555 0.997103 0.990396 1.06561 0.990865 0.990389 0.996631 1.04079 0.990742 0.997106 0.996994 1.04709 1.0029 1.00307 1.04041 1.00959 1.00957 1.00324 1.05324 1.00312 0.996827 1.0031 1.04692 1.00958 1.0094 1.00917 1.05334 1.01583 1.01573 1.04055 1.01586 1.0219 1.022 1.02184 1.0343 1.02794 1.01566 1.01558 1.04046 1.02163 1.02195 1.00295 1.04676 0.996646 1.00922 1.00943 1.04689 1.00954 1.00312 1.00311 1.003 1.04679 1.00329 1.00919 1.00916 1.0406 1.01577 1.01584 1.02202 1.05914 1.0221 1.02805 1.01569 1.06562 1.01564 1.0157 1.05944 1.02182 1.02201 1.02187 1.07168 1.02788 1.02837 1.0656 1.02192 1.02811 1.03444 1.05335 1.02798 1.03455 1.02827 1.05933 1.02831 1.02832 1.03434 1.05335 1.03418 1.03429 1.04075 1.05324 1.04076 1.05952 1.04065 1.04705 1.06544 1.05292 1.04696 1.04712 1.06567 1.04043 1.04039 1.05324 1.05931 1.04699 1.04709 1.09051 1.02808 1.09047 1.02812 1.0905 1.04058 1.10336 1.03435 1.09684 1.03443 1.09663 1.02795 1.09695 1.03447 1.0968 1.02824 1.09054 1.04051 1.09044 1.03456 1.10313 1.0346 1.09696 1.04085 1.10318 1.04047 1.10932 1.04688 1.10956 1.04684 1.11543 1.05308 1.10302 1.05328 1.10943 1.04702 1.10326 1.05304 1.11571 1.04084 1.10933 1.04667 1.10918 1.05933 1.11562 1.05288 1.09068 1.04711 1.09078 1.08439 1.09058 1.05947 1.0969 1.09674 1.10332 1.05309 1.09676 1.05937 1.09706 1.09689 1.06564 1.0844 1.10303 1.09079 1.05957 1.10337 1.10943 1.06538 1.10946 1.05945 1.11552 1.05314 1.10949 1.05946 1.11586 1.06571 1.10322 1.06579 1.10924 1.09677 1.07172 1.11558 1.10306 1.10943 1.06585 1.1158 1.12173 1.07177 1.12798 1.12202 1.12799 1.07821 1.13452 1.12824 1.1221 1.12196 1.08442 1.11543 1.12205 1.07822 1.12795 1.13459 1.12835 1.08461 1.14042 1.13428 1.0779 1.13415 1.14053 1.14051 1.07201 1.14691 1.0721 1.14049 1.07195 1.13424 1.1471 1.14071 1.07833 1.12207 1.12171 1.08439 1.12799 1.07798 1.11585 1.05962 1.12813 1.05331 1.13413 1.05959 1.12209 1.06538 1.1221 1.06539 1.12807 1.06538 1.11564 1.05326 1.13434 1.05934 1.05956 1.12203 1.07196 1.0658 1.13428 1.06558 1.13434 1.07206 1.14057 1.07187 1.13415 1.08428 1.12806 1.07801 1.14072 1.08428 1.14667 1.07806 1.07803 1.0721 1.14073 1.07182 1.14083 1.07817 1.08415 1.12825 1.08455 1.07797 1.02801 1.14683 1.03413 1.0345 1.04053 1.1346 1.09058 1.03433 1.08458 1.09044 1.02831 1.10334 1.09675 1.02798 1.03427 1.09688 1.02795 1.0344 1.04067 1.04061 1.04666 1.04075 1.0908 1.04691 1.04682 1.05943 1.08461 1.05301 0.753065 1.09039 1.0906 0.772003 1.0969 1.10294 1.05327 1.09693 0.74664 0.746939 1.0971 1.04672 1.04076 1.10928 1.04677 1.1155 1.0531 0.752881 1.10922 1.10298 0.740515 1.12177 1.05302 0.759269 1.05327 1.02793 1.10933 1.03441 0.747049 1.03455 1.12208 1.04071 0.759504 1.03416 1.11562 1.04067 0.74075 1.02809 0.765469 1.03437 1.10332 1.02788 0.747026 1.03454 1.04058 0.76543 1.04079 1.04044 1.10295 1.04671 0.753014 0.765799 1.05305 1.04695 0.753359 0.759338 1.04696 1.10929 1.05337 1.05325 1.05917 0.746808 1.04687 0.759569 1.0467 1.1096 1.05301 1.05327 1.05918 0.740379 1.07165 0.765844 1.0654 1.05935 1.11542 1.0656 1.06566 1.07182 0.765618 1.08448 0.740457 1.05938 1.05943 0.771986 1.08423 1.07183 1.06563 1.06544 1.07202 0.759498 1.07795 0.746816 0.759199 1.07209 0.753265 1.09061 0.759598 1.09074 1.08437 1.07822 0.75329 0.765784 1.09086 1.07837 0.76543 1.07804 1.09666 1.07788 0.765641 1.08456 0.752982 1.08432 1.09695 1.0844 0.771928 1.06555 1.05913 0.75932 0.765788 1.06558 1.09044 1.05943 1.06573 0.765558 1.07195 0.759349 1.08423 1.07173 1.05954 1.05929 0.765404 0.759546 1.06574 1.0904 1.07181 1.06543 0.765396 0.772009 1.07212 1.09087 1.07836 1.07817 0.772112 1.08415 1.07828 0.765429 1.08439 1.10305 1.08433 0.77172 1.09052 0.772081 1.07188 1.09709 1.07804 0.772018 1.08434 1.07788 1.10294 0.759145 1.09083 0.771865 0.765729 0.771845 1.07202 1.10325 0.759255 1.06541 0.778037 1.10332 0.759188 0.777948 1.07205 1.10947 0.771743 0.778217 1.0783 1.11541 0.772119 0.784217 1.10945 0.765794 0.784592 1.07818 1.10962 0.784262 0.765806 1.07797 1.11575 0.777934 0.703151 1.08445 0.778035 1.09708 0.709131 1.0782 0.784181 0.703272 1.10945 1.07195 0.784204 0.715616 1.10305 1.07167 0.784239 0.715682 1.11544 1.1279 0.709352 0.765668 1.08415 1.11573 0.703154 1.08455 0.765731 0.709201 1.12165 1.07817 1.08438 1.12818 0.771866 0.709349 1.08438 1.13438 0.76563 0.703258 1.1155 1.09042 0.715778 0.77177 1.12823 1.09086 0.715875 1.12186 0.778077 0.71563 1.12207 1.09676 0.772036 1.13426 0.777886 0.728203 1.09085 1.12813 0.722082 0.765489 1.09693 1.14044 0.772038 0.72791 1.14076 1.0905 0.778058 0.721748 1.0907 1.1408 0.778239 0.734336 0.771838 1.10314 1.14706 0.734212 1.09702 0.778165 0.734333 1.1342 1.09697 0.728134 0.778237 1.12797 1.09696 0.721826 0.78432 1.07796 0.722075 1.14666 0.721992 1.07817 0.784386 1.14052 1.07809 0.790644 0.734473 1.14085 0.728254 1.0843 0.79082 0.734419 1.14697 1.0844 0.728246 0.790807 1.09053 1.13437 0.78446 0.709213 1.09057 1.122 1.08434 0.784261 0.702941 1.12163 1.07811 0.790695 0.703285 1.11556 0.715605 1.07819 0.784459 0.715438 1.12176 1.08448 0.796631 0.709283 1.12796 1.08419 0.790744 1.09054 0.709156 1.12805 1.09053 0.797016 0.703287 1.12792 1.09671 0.70916