# vtk DataFile Version 3.0
vtk output
ASCII
DATASET UNSTRUCTURED_GRID
POINTS 44491 float
0.0134488 0.022321 0
0.00656534 0.0122752 0
0.0131238 0.00549372 0
0.0202221 0.0104942 0
0.0163798 0.0228029 0
0.0148386 0.0228369 0
0.0134488 0.022321 0
0 0 0
0.0122191 0 0
0.0131238 0.00549372 0
0.00656534 0.0122752 0
0 0.0117721 0
0 0 0
0.0284662 0 0
0.0392858 0 0
0.0391816 0.00947962 0
0.0319348 0.0129866 0
0.0302788 0.0129125 0
0.0268394 0.00985017 0
0.0284662 0 0
0.0163798 0.0228029 0
0.0202221 0.0104942 0
0.0268394 0.00985017 0
0.0302788 0.0129125 0
0.0243536 0.0245391 0
0.0204729 0.0249968 0
0.0163798 0.0228029 0
0.487066 0.872219 0
0.490268 0.882131 0
0.480682 0.890829 0
0.476988 0.889245 0
0.472961 0.880458 0
0.487066 0.872219 0
0.0131238 0.00549372 0
0.0122191 0 0
0.0284662 0 0
0.0268394 0.00985017 0
0.0202221 0.0104942 0
0.0131238 0.00549372 0
0 0.0271443 0
0.0134488 0.022321 0
0.0148386 0.0228369 0
0.00988197 0.0364327 0
0 0.0347374 0
0 0.0271443 0
0.434447 0.386584 0
0.439313 0.383793 0
0.448661 0.389157 0
0.447501 0.396363 0
0.441428 0.399937 0
0.433065 0.394418 0
0.434447 0.386584 0
0 0.0117721 0
0.00656534 0.0122752 0
0.0134488 0.022321 0
0 0.0271443 0
0 0.0117721 0
0.830778 0.43978 0
0.84345 0.438314 0
0.844451 0.439422 0
0.843877 0.449083 0
0.837324 0.452551 0
0.831413 0.4508 0
0.830778 0.43978 0
0.487066 0.872219 0
0.487269 0.871333 0
0.499972 0.870066 0
0.503658 0.878978 0
0.499487 0.88553 0
0.498291 0.885875 0
0.490268 0.882131 0
0.487066 0.872219 0
0.0144202 0.0406395 0
0.00988197 0.0364327 0
0.0148386 0.0228369 0
0.0163798 0.0228029 0
0.0204729 0.0249968 0
0.0198254 0.0391804 0
0.0176378 0.0408638 0
0.0144202 0.0406395 0
0.454861 0.377914 0
0.460011 0.375561 0
0.470952 0.383284 0
0.463283 0.391786 0
0.453276 0.38625 0
0.454861 0.377914 0
0.812618 0.458682 0
0.814327 0.451124 0
0.816957 0.44938 0
0.828026 0.45288 0
0.825814 0.463148 0
0.820777 0.464573 0
0.812618 0.458682 0
0.0243536 0.0245391 0
0.0302788 0.0129125 0
0.0319348 0.0129866 0
0.0388409 0.0249693 0
0.0377964 0.0276422 0
0.0309632 0.0289833 0
0.0243536 0.0245391 0
0.440603 0.406247 0
0.441428 0.399937 0
0.447501 0.396363 0
0.456196 0.402108 0
0.455773 0.407817 0
0.447766 0.412777 0
0.440603 0.406247 0
0.465712 0.897577 0
0.476988 0.889245 0
0.480682 0.890829 0
0.483484 0.897482 0
0.474119 0.905639 0
0.466324 0.901969 0
0.465712 0.897577 0
0.807006 0.461471 0
0.812618 0.458682 0
0.820777 0.464573 0
0.817378 0.474931 0
0.81428 0.476065 0
0.808109 0.472234 0
0.807006 0.461471 0
0.490268 0.882131 0
0.498291 0.885875 0
0.495056 0.895195 0
0.486142 0.898861 0
0.483484 0.897482 0
0.480682 0.890829 0
0.490268 0.882131 0
0.0198254 0.0391804 0
0.0204729 0.0249968 0
0.0243536 0.0245391 0
0.0309632 0.0289833 0
0.0292158 0.0393032 0
0.0198254 0.0391804 0
0.828026 0.45288 0
0.831413 0.4508 0
0.837324 0.452551 0
0.839272 0.464118 0
0.832101 0.467332 0
0.825814 0.463148 0
0.828026 0.45288 0
0.456196 0.402108 0
0.46381 0.396863 0
0.469971 0.400409 0
0.469247 0.411141 0
0.463252 0.413569 0
0.455773 0.407817 0
0.456196 0.402108 0
0.495056 0.895195 0
0.502907 0.905495 0
0.499193 0.912126 0
0.491442 0.911723 0
0.486142 0.898861 0
0.495056 0.895195 0
0.843877 0.449083 0
0.844451 0.439422 0
0.855005 0.438793 0
0.857972 0.448105 0
0.852703 0.453957 0
0.843877 0.449083 0
0.0391816 0.00947962 0
0.0392858 0 0
0.0518733 0 0
0.0515513 0.00841067 0
0.0457267 0.0126098 0
0.0391816 0.00947962 0
0.448661 0.389157 0
0.453276 0.38625 0
0.463283 0.391786 0
0.46381 0.396863 0
0.456196 0.402108 0
0.447501 0.396363 0
0.448661 0.389157 0
0.0518733 0 0
0.0647391 0 0
0.0622141 0.0122684 0
0.0599506 0.0133049 0
0.0515513 0.00841067 0
0.0518733 0 0
0.432329 0.905026 0
0.43758 0.904201 0
0.445988 0.915926 0
0.445494 0.91979 0
0.444419 0.921004 0
0.441496 0.921305 0
0.430407 0.915256 0
0.432329 0.905026 0
0.855005 0.438793 0
0.858217 0.434173 0
0.86692 0.434807 0
0.869423 0.443622 0
0.864422 0.448547 0
0.857972 0.448105 0
0.855005 0.438793 0
0.0465545 0.0193099 0
0.0457267 0.0126098 0
0.0515513 0.00841067 0
0.0599506 0.0133049 0
0.0577409 0.0204477 0
0.0514112 0.0223766 0
0.0465545 0.0193099 0
0.470952 0.383284 0
0.471162 0.383251 0
0.478165 0.388219 0
0.475774 0.398336 0
0.469971 0.400409 0
0.46381 0.396863 0
0.463283 0.391786 0
0.470952 0.383284 0
0.449979 0.899482 0
0.454664 0.906951 0
0.445988 0.915926 0
0.43758 0.904201 0
0.443583 0.898709 0
0.449979 0.899482 0
0.0377964 0.0276422 0
0.0388409 0.0249693 0
0.0465545 0.0193099 0
0.0514112 0.0223766 0
0.0505954 0.0313314 0
0.0425996 0.0344027 0
0.0377964 0.0276422 0
0.487194 0.378077 0
0.484251 0.386974 0
0.478165 0.388219 0
0.471162 0.383251 0
0.476376 0.373245 0
0.483558 0.373219 0
0.487194 0.378077 0
0.445988 0.915926 0
0.454664 0.906951 0
0.459911 0.908566 0
0.462939 0.916617 0
0.46056 0.921274 0
0.445494 0.91979 0
0.445988 0.915926 0
0.857972 0.448105 0
0.864422 0.448547 0
0.868806 0.458996 0
0.866123 0.461655 0
0.857512 0.461238 0
0.85315 0.457175 0
0.852703 0.453957 0
0.857972 0.448105 0
0.0319348 0.0129866 0
0.0391816 0.00947962 0
0.0457267 0.0126098 0
0.0465545 0.0193099 0
0.0388409 0.0249693 0
0.0319348 0.0129866 0
0.430645 0.931744 0
0.441496 0.921305 0
0.444419 0.921004 0
0.447383 0.929817 0
0.44154 0.939694 0
0.430645 0.931744 0
0.0581472 0.036467 0
0.0505954 0.0313314 0
0.0514112 0.0223766 0
0.0577409 0.0204477 0
0.063227 0.0264074 0
0.0596036 0.0360285 0
0.0581472 0.036467 0
0.864422 0.448547 0
0.869423 0.443622 0
0.879268 0.445957 0
0.879286 0.44599 0
0.875946 0.458087 0
0.868806 0.458996 0
0.864422 0.448547 0
0.484251 0.386974 0
0.487194 0.378077 0
0.497325 0.377463 0
0.500045 0.382843 0
0.49424 0.392669 0
0.491289 0.393074 0
0.484251 0.386974 0
0.0577409 0.0204477 0
0.0599506 0.0133049 0
0.0622141 0.0122684 0
0.0702463 0.014866 0
0.0703019 0.0253687 0
0.063227 0.0264074 0
0.0577409 0.0204477 0
0.445494 0.91979 0
0.46056 0.921274 0
0.462147 0.929717 0
0.458974 0.933009 0
0.447383 0.929817 0
0.444419 0.921004 0
0.445494 0.91979 0
0.837324 0.452551 0
0.843877 0.449083 0
0.852703 0.453957 0
0.85315 0.457175 0
0.842038 0.465088 0
0.839272 0.464118 0
0.837324 0.452551 0
0.469971 0.400409 0
0.475774 0.398336 0
0.484822 0.403922 0
0.477155 0.415424 0
0.469247 0.411141 0
0.469971 0.400409 0
0.00716704 0.0478055 0
0.0144202 0.0406395 0
0.0176378 0.0408638 0
0.0210491 0.0533747 0
0.0166549 0.055995 0
0.012446 0.055505 0
0.00716704 0.0478055 0
0.466324 0.901969 0
0.474119 0.905639 0
0.475823 0.912718 0
0.473867 0.916314 0
0.462939 0.916617 0
0.459911 0.908566 0
0.466324 0.901969 0
0.85315 0.457175 0
0.857512 0.461238 0
0.854869 0.472378 0
0.845973 0.473051 0
0.842038 0.465088 0
0.85315 0.457175 0
0 0.0347374 0
0.00988197 0.0364327 0
0.0144202 0.0406395 0
0.00716704 0.0478055 0
0 0.0471587 0
0 0.0347374 0
0.491289 0.393074 0
0.49424 0.392669 0
0.501965 0.398625 0
0.502095 0.404739 0
0.492564 0.408759 0
0.485974 0.403735 0
0.491289 0.393074 0
0.474119 0.905639 0
0.483484 0.897482 0
0.486142 0.898861 0
0.491442 0.911723 0
0.491261 0.911874 0
0.475823 0.912718 0
0.474119 0.905639 0
0.857512 0.461238 0
0.866123 0.461655 0
0.867875 0.473474 0
0.867188 0.4748 0
0.860157 0.477212 0
0.854869 0.472378 0
0.857512 0.461238 0
0.0299865 0.0400272 0
0.0411011 0.0406752 0
0.0401085 0.0506368 0
0.0352105 0.0541901 0
0.0290898 0.0510831 0
0.0299865 0.0400272 0
0.478165 0.388219 0
0.484251 0.386974 0
0.491289 0.393074 0
0.485974 0.403735 0
0.484822 0.403922 0
0.475774 0.398336 0
0.478165 0.388219 0
0.475823 0.912718 0
0.491261 0.911874 0
0.487383 0.926978 0
0.476134 0.921622 0
0.473867 0.916314 0
0.475823 0.912718 0
0.866123 0.461655 0
0.868806 0.458996 0
0.875946 0.458087 0
0.879409 0.460917 0
0.878668 0.470205 0
0.867875 0.473474 0
0.866123 0.461655 0
0.0176378 0.0408638 0
0.0198254 0.0391804 0
0.0292158 0.0393032 0
0.0299865 0.0400272 0
0.0290898 0.0510831 0
0.0210622 0.0533772 0
0.0210491 0.0533747 0
0.0176378 0.0408638 0
0.431565 0.416624 0
0.432308 0.41047 0
0.440603 0.406247 0
0.447766 0.412777 0
0.447197 0.418174 0
0.440776 0.422052 0
0.431565 0.416624 0
0 0.0471587 0
0.00716704 0.0478055 0
0.012446 0.055505 0
0.0034758 0.0627055 0
0 0.0623018 0
0 0.0471587 0
0.825814 0.463148 0
0.832101 0.467332 0
0.8314 0.47626 0
0.825191 0.478396 0
0.817378 0.474931 0
0.820777 0.464573 0
0.825814 0.463148 0
0.447766 0.412777 0
0.455773 0.407817 0
0.463252 0.413569 0
0.461127 0.421581 0
0.454621 0.423588 0
0.447197 0.418174 0
0.447766 0.412777 0
0.491261 0.911874 0
0.491442 0.911723 0
0.499193 0.912126 0
0.504163 0.919426 0
0.496657 0.926121 0
0.487862 0.927842 0
0.487383 0.926978 0
0.491261 0.911874 0
0.0034758 0.0627055 0
0.012446 0.055505 0
0.0166549 0.055995 0
0.0173325 0.0687207 0
0.0105241 0.0702234 0
0.0034758 0.0627055 0
0.811414 0.484466 0
0.81428 0.476065 0
0.817378 0.474931 0
0.825191 0.478396 0
0.823823 0.491143 0
0.820182 0.492236 0
0.811414 0.484466 0
0.461127 0.421581 0
0.463252 0.413569 0
0.469247 0.411141 0
0.477155 0.415424 0
0.477919 0.41743 0
0.468605 0.428125 0
0.461127 0.421581 0
0.43529 0.443915 0
0.433086 0.441219 0
0.434325 0.432898 0
0.439853 0.429418 0
0.449599 0.435478 0
0.446989 0.442912 0
0.43529 0.443915 0
0.439853 0.429418 0
0.440776 0.422052 0
0.447197 0.418174 0
0.454621 0.423588 0
0.452138 0.434236 0
0.449599 0.435478 0
0.439853 0.429418 0
0.452138 0.434236 0
0.454621 0.423588 0
0.461127 0.421581 0
0.468605 0.428125 0
0.468669 0.428506 0
0.461447 0.437889 0
0.452138 0.434236 0
0.492564 0.408759 0
0.502095 0.404739 0
0.506776 0.408561 0
0.507037 0.416531 0
0.499759 0.420768 0
0.492616 0.415992 0
0.492564 0.408759 0
0.485383 0.428043 0
0.484039 0.421073 0
0.492616 0.415992 0
0.499759 0.420768 0
0.49926 0.427771 0
0.493313 0.431759 0
0.485383 0.428043 0
0.484822 0.403922 0
0.485974 0.403735 0
0.492564 0.408759 0
0.492616 0.415992 0
0.484039 0.421073 0
0.477919 0.41743 0
0.477155 0.415424 0
0.484822 0.403922 0
0.463408 0.443904 0
0.461447 0.437889 0
0.468669 0.428506 0
0.477826 0.435202 0
0.478022 0.438112 0
0.470243 0.445126 0
0.463408 0.443904 0
0.46056 0.921274 0
0.462939 0.916617 0
0.473867 0.916314 0
[...]
CELL_DATA 6400
FIELD FieldData 3
weight 1 6400 float
 0.0533209 0.0532155 0.0534066 0.0533856 0.0510632 0.0533342 0.0533539 0.0552309 0.0532899 0.0538664 0.0511277 0.053399 0.0552872 0.0539044 0.0534739 0.0551933 0.0508659 0.05389 0.050955 0.0534589 0.0538169 0.0552004 0.0508327 0.0537703 0.053477 0.0552406 0.0535625 0.0506446 0.0537049 0.053569 0.0552499 0.0507171 0.0535743 0.0552987 0.0506286 0.0536427 0.0535025 0.0504534 0.0536411 0.053591 0.0552934 0.0536596 0.0505024 0.0537607 0.0552063 0.0534374 0.050702 0.0536758 0.0533704 0.0552287 0.0507668 0.0535832 0.0535584 0.0552465 0.050629 0.0534968 0.0534958 0.0551427 0.0534043 0.0537954 0.0551542 0.0505705 0.0534684 0.0537638 0.0551504 0.0550482 0.0551011 0.0551023 0.0551879 0.0551447 0.0551816 0.055076 0.0505419 0.0551273 0.0550945 0.0535549 0.0536948 0.0504804 0.0548226 0.0535244 0.0537075 0.0549038 0.0535233 0.0548823 0.0504237 0.0536321 0.0537032 0.0547525 0.0536244 0.0502581 0.0537591 0.0548238 0.053632 0.0501709 0.0548191 0.0535743 0.0536261 0.0549375 0.0500984 0.0536224 0.0536869 0.0549752 0.0500207 0.0535949 0.0536349 0.0548832 0.0500636 0.0534586 0.0536926 0.0549142 0.050244 0.053762 0.0549359 0.0534836 0.0503176 0.0537174 0.0546814 0.0534826 0.0502069 0.0537028 0.0547614 0.0538537 0.0500476 0.0547627 0.0533601 0.0537788 0.0501111 0.0537775 0.05461 0.0499974 0.0538798 0.0537887 0.0497429 0.053895 0.0546312 0.0538201 0.053801 0.0498855 0.0546963 0.053943 0.0498157 0.0536683 0.05386 0.0496226 0.0546738 0.0537782 0.0548376 0.053963 0.0496105 0.0547765 0.0536965 0.0497166 0.054062 0.0548654 0.0495967 0.0536491 0.0540349 0.054804 0.0499234 0.0535299 0.0539741 0.0498542 0.0547116 0.0537847 0.05363 0.0497926 0.0537661 0.0535425 0.0547201 0.0497131 0.053867 0.0496425 0.0549959 0.0534262 0.0538042 0.0549864 0.0503855 0.0539461 0.0534643 0.0550355 0.0502378 0.0538567 0.0535883 0.0550071 0.0539433 0.0502101 0.053567 0.0549105 0.0539494 0.0500569 0.0549453 0.0534658 0.0501174 0.0540452 0.0534059 0.0550471 0.0503014 0.0541341 0.0537242 0.0550436 0.0502907 0.0540292 0.0535178 0.0549974 0.0503623 0.0536177 0.0549529 0.0540423 0.0503664 0.0549398 0.0541057 0.0536262 0.0534994 0.0500972 0.0549857 0.053634 0.0534262 0.054847 0.0501931 0.0535127 0.0535716 0.053439 0.0500837 0.0548246 0.0535366 0.0548709 0.0534505 0.0533141 0.049957 0.053604 0.0533432 0.0547865 0.0498735 0.0535322 0.0534026 0.0536565 0.0496575 0.0547252 0.0533058 0.0536142 0.0497918 0.0547992 0.0532349 0.0497088 0.0536861 0.0548905 0.0496679 0.0533463 0.0548454 0.0537589 0.0499301 0.0532264 0.0536594 0.0548951 0.0499274 0.0537154 0.0531344 0.0547809 0.0532528 0.0532099 0.0547741 0.0533247 0.0533106 0.0548238 0.0531343 0.0552396 0.0530889 0.0537716 0.0552714 0.0531584 0.0499766 0.0529735 0.0552325 0.0534763 0.0529478 0.0497398 0.0534903 0.0553433 0.05303 0.0498413 0.0536719 0.0530416 0.0535905 0.0553122 0.0498147 0.052928 0.0553088 0.0535701 0.0497492 0.0528714 0.0553121 0.0535565 0.0532057 0.0536589 0.0546759 0.0553417 0.0530841 0.0536336 0.0552793 0.053037 0.0537326 0.0552749 0.0532084 0.0547533 0.0552375 0.0537529 0.0531237 0.0552278 0.054719 0.0538214 0.0530962 0.0552619 0.0538307 0.0553392 0.0529881 0.0546133 0.0537705 0.055307 0.052947 0.0537104 0.0545749 0.0553071 0.0528119 0.0545374 0.0537985 0.0553291 0.0528458 0.0546354 0.0529581 0.0553727 0.0538689 0.0546699 0.0528672 0.0553677 0.0538503 0.0526881 0.0554086 0.0546709 0.0527303 0.0539046 0.0527703 0.054579 0.0554463 0.0539798 0.0534731 0.0554452 0.0545991 0.0538359 0.0554034 0.0539051 0.0535028 0.0545121 0.0553627 0.0539665 0.0534073 0.0553541 0.0539796 0.0544183 0.053386 0.0553965 0.0540639 0.0544817 0.0554384 0.0534052 0.054208 0.0554446 0.0543127 0.0533565 0.0552118 0.0543808 0.0541292 0.0533041 0.0552302 0.0541339 0.0551868 0.0544813 0.053206 0.0551709 0.0540598 0.0544257 0.0552354 0.0531349 0.0544131 0.0542116 0.0552665 0.0532706 0.0544992 0.0542104 0.0552686 0.053069 0.054332 0.0552596 0.0539648 0.0551504 0.0531543 0.0539027 0.0543034 0.0551892 0.0538893 0.0552085 0.0543701 0.0534252 0.0551219 0.0540528 0.0532585 0.0545936 0.0551573 0.0532856 0.0539441 0.0552424 0.0546734 0.0552111 0.05406 0.0533221 0.0546121 0.0551906 0.0540278 0.0531128 0.0545026 0.0541266 0.0553108 0.0553093 0.054526 0.0542057 0.0531946 0.0553538 0.0545355 0.0532064 0.0542859 0.0553742 0.0531209 0.0546155 0.0541403 0.0554034 0.0531035 0.0553238 0.0541816 0.0545514 0.0553405 0.0530315 0.0545264 0.0540957 0.0552794 0.0530356 0.0544405 0.0542698 0.0552126 0.0544479 0.0552387 0.0528964 0.0540009 0.0552945 0.0544595 0.0540645 0.0529101 0.0553436 0.0544035 0.0541583 0.0530093 0.055264 0.054226 0.0544337 0.0541281 0.0529517 0.0543056 0.0553094 0.0540969 0.0542499 0.0530292 0.0555321 0.0543434 0.0541815 0.0529244 0.0543536 0.0542442 0.0554935 0.0528956 0.0542899 0.0543507 0.0554992 0.0542543 0.0528317 0.054271 0.05553 0.0541911 0.0528556 0.0543089 0.0542699 0.055568 0.0526255 0.0543981 0.0555536 0.054207 0.0527721 0.054317 0.0554807 0.0526962 0.054256 0.0543605 0.0554873 0.0526347 0.0544721 0.0554861 0.0525415 0.0541373 0.0555619 0.0541483 0.0555366 0.0529041 0.054099 0.0542177 0.0555358 0.0542182 0.0528433 0.0542689 0.0542768 0.0541403 0.0555245 0.052977 0.0540893 0.0542003 0.0541567 0.0527118 0.0555719 0.0543335 0.0527934 0.054039 0.055597 0.0542827 0.0555818 0.0543364 0.0527745 0.0539921 0.0544269 0.0527704 0.0539145 0.055603 0.0544234 0.0526426 0.0543954 0.055605 0.0538065 0.0555768 0.0526783 0.0540269 0.0545508 0.0539618 0.0555484 0.0525503 0.0545057 0.0540124 0.055596 0.0524871 0.0538945 0.0544775 0.0555969 0.0526021 0.0543678 0.053898 0.0555723 0.0544426 0.0524302 0.0538471 0.0545347 0.0555797 0.0544993 0.0523551 0.0537669 0.0554808 0.0544751 0.0524749 0.0537689 0.055444 0.0544978 0.0523233 0.0554285 0.0541988 0.0546211 0.0523801 0.0553929 0.0545642 0.0541892 0.0555143 0.0525254 0.0541276 0.0545694 0.0555283 0.0545903 0.0540709 0.052467 0.0554967 0.0546373 0.0522866 0.0540913 0.0554707 0.055421 0.0546661 0.0540086 0.0522899 0.0553839 0.0541571 0.0522097 0.0547335 0.0554343 0.0540719 0.0524017 0.0546769 0.0553581 0.0541784 0.0554666 0.0547012 0.0540424 0.052668 0.055394 0.0547375 0.0539325 0.0554494 0.052772 0.0545475 0.0539687 0.0546305 0.0554268 0.0539346 0.0525172 0.0545998 0.0555506 0.0538771 0.0525445 0.054647 0.0555077 0.0538083 0.0546915 0.0555444 0.0526377 0.0538502 0.0555279 0.0546584 0.0526684 0.0537352 0.055562 0.0545932 0.0522166 0.0538003 0.0547009 0.0521297 0.0539159 0.055569 0.0547378 0.0538125 0.0522778 0.0555389 0.0547499 0.0537512 0.0554844 0.0523539 0.0548029 0.0536645 0.0554591 0.0520181 0.0547963 0.0555174 0.0520188 0.0536797 0.054779 0.0555002 0.0521236 0.0547475 0.0544764 0.0522069 0.0554825 0.0524256 0.0548462 0.0550927 0.0544836 0.052425 0.0550942 0.0542882 0.0544273 0.055094 0.0544156 0.0525534 0.0550576 0.0543564 0.0543534 0.0523389 0.0543455 0.0551543 0.0543253 0.0523151 0.0542839 0.0551721 0.054399 0.0544119 0.0524531 0.055137 0.0543799 0.0544197 0.0551412 0.0524326 0.0544778 0.0543457 0.0550374 0.055001 0.0544966 0.0527602 0.0542845 0.0549425 0.0545522 0.0542762 0.0549682 0.0528882 0.054479 0.0550938 0.0541771 0.0545336 0.0529427 0.0542542 0.0550874 0.0545872 0.0550454 0.0546133 0.0543566 0.0527251 0.0550489 0.0542478 0.0543624 0.0528151 0.0552171 0.0541792 0.0542943 0.0528375 0.0551853 0.0542687 0.0544253 0.0552616 0.0544795 0.0531189 0.0541375 0.0552044 0.0543711 0.0541353 0.0530543 0.0552382 0.054205 0.0543481 0.0551311 0.0540765 0.0531668 0.0544762 0.0551329 0.0541782 0.0551001 0.0544167 0.0529904 0.0541189 0.0550737 0.0545379 0.0529562 0.0539721 0.055214 0.0545975 0.0551752 0.0530822 0.0543112 0.055155 0.0545433 0.052588 0.0541969 0.0545441 0.0551054 0.0527177 0.0541824 0.0548939 0.054603 0.052711 0.054855 0.0541273 0.054672 0.0549337 0.0525667 0.0542395 0.0549502 0.0546033 0.0526202 0.0549897 0.0540874 0.0547233 0.0528103 0.0549029 0.0546723 0.0541515 0.0548825 0.054804 0.054727 0.053059 0.0548208 0.0540225 0.0529082 0.0547901 0.0546718 0.0527832 0.0547347 0.054864 0.0541228 0.0547575 0.0527421 0.0548129 0.0540523 0.0548548 0.0547752 0.052885 0.0539407 0.0548435 0.0547725 0.051881 0.0539238 0.0549075 0.054852 0.052014 0.0546439 0.0540776 0.0550021 0.0520814 0.0546992 0.0539958 0.0549988 0.0517479 0.0547477 0.0540396 0.0549648 0.0518768 0.0547752 0.0549451 0.0539726 0.0520447 0.0546822 0.0538923 0.0550706 0.0519031 0.054662 0.0539125 0.0521601 0.0550377 0.0547371 0.0539838 0.055012 0.0522056 0.0548115 0.053839 0.054897 0.0548616 0.0523391 0.0549222 0.0548108 0.0538114 0.0523211 0.0548497 0.0520939 0.0537981 0.0549366 0.0549618 0.0522283 0.0537194 0.0549027 0.0549083 0.0521638 0.0537545 0.0548527 0.0548519 0.0517726 0.0516481 0.0549118 0.0540921 0.0548799 0.051842 0.0540263 0.0553016 0.0519212 0.0549343 0.0540376 0.0553423 0.0515648 0.0535079 0.0539867 0.0552752 0.0517023 0.0535503 0.0539349 0.055383 0.051791 0.0536591 0.0539164 0.0553284 0.0516915 0.0536101 0.0552761 0.0518936 0.0536198 0.0540204 0.0519975 0.0552086 0.0535652 0.0539346 0.0551913 0.0521245 0.0535101 0.0538306 0.053683 0.0520571 0.0551548 0.0538739 0.0536292 0.055313 0.0537724 0.0517721 0.0552538 0.0537881 0.0538673 0.0552256 0.0519302 0.0537868 0.0552884 0.0537337 0.0519969 0.0538228 0.055423 0.0538777 0.0524751 0.0553708 0.0536259 0.052522 0.0554079 0.0538229 0.0537499 0.0523673 0.053742 0.0554289 0.0536671 0.0537353 0.05264 0.0536957 0.0554476 0.0538673 0.0523447 0.0536998 0.0538177 0.0522626 0.0536513 0.055463 0.0535107 0.0524702 0.0553837 0.0535624 0.0535564 0.055322 0.05265 0.0536166 0.0535853 0.0553536 0.0536734 0.0527736 0.0535639 0.0553016 0.0534923 0.0525477 0.0538705 0.0552643 0.0535394 0.0525431 0.0537661 0.0535961 0.0553778 0.0538638 0.0536625 0.0527094 0.0553535 0.0537663 0.0537654 0.0526113 0.0553292 0.0537414 0.053893 0.0550952 0.0536778 0.0522056 0.0537243 0.0536464 0.0551165 0.0522616 0.0538425 0.0536676 0.0550508 0.0524102 0.055027 0.053814 0.0536057 0.0520571 0.0551597 0.0539514 0.0522969 0.0551337 0.0535704 0.055069 0.0540278 0.0535493 0.0520921 0.0549512 0.0540928 0.0524602 0.053504 0.0548974 0.0539368 0.053625 0.0550095 0.0524323 0.0540114 0.0535074 0.055004 0.0541104 0.0525972 0.0534911 0.0549444 0.0541591 0.052291 0.0535078 0.0549512 0.0533876 0.0542435 0.0551948 0.0523711 0.0534369 0.0552334 0.0543185 0.0534054 0.0551662 0.0532743 0.0542497 0.0550964 0.0533085 0.0533218 0.0541822 0.0552762 0.0533292 0.0542696 0.0552012 0.0533681 0.053421 0.0539918 0.0551304 0.0539581 0.0532019 0.0531894 0.0551858 0.0541167 0.055063 0.0536192 0.0531786 0.0540747 0.0540302 0.053311 0.0550028 0.0537187 0.0539138 0.0534639 0.0551345 0.0539593 0.053699 0.0550686 0.0534536 0.0540315 0.0534914 0.0541166 0.0550446 0.0535704 0.0535691 0.0541997 0.0535263 0.053622 0.0549884 0.0543227 0.0536002 0.0533495 0.0542576 0.0534026 0.0537209 0.0541721 0.0556322 0.0531017 0.0536484 0.0542169 0.0556196 0.0535122 0.0530467 0.0542997 0.0556041 0.0534629 0.05323 0.0556323 0.053519 0.0535329 0.0534664 0.055655 0.0529478 0.0536115 0.0556439 0.0533752 0.0531299 0.0535028 0.0556354 0.0534453 0.0530007 0.0534371 0.0556067 0.0532525 0.0535596 0.0556195 0.0531913 0.0536345 0.0534047 0.0556146 0.0531977 0.0535634 0.0532409 0.0555897 0.0533103 0.0537557 0.0556284 0.0531208 0.0536872 0.053263 0.0556119 0.053211 0.0536854 0.0534071 0.0556698 0.0533582 0.0556686 0.0533291 0.0538122 0.053631 0.0556557 0.0533268 0.0537555 0.0536865 0.0556837 0.0531729 0.0536923 0.0556801 0.0532467 0.0538503 0.0556735 0.0537663 0.055658 0.0537712 0.0532107 0.0537992 0.0556508 0.0534218 0.0536969 0.0556318 0.0535406 0.0534818 0.05567 0.053615 0.0537113 0.0536089 0.055652 0.0535545 0.0535985 0.0533953 0.0534264 0.0555731 0.0534437 0.0538898 0.0534852 0.0555496 0.053548 0.0555916 0.0536334 0.0555686 0.0534937 0.0539985 0.0535284 0.0555632 0.0535797 0.0555276 0.0537698 0.0535703 0.0536502 0.0537287 0.0535416 0.0554979 0.0539089 0.0534083 0.0538104 0.0555155 0.0538679 0.0533995 0.0555331 0.0536783 0.0534917 0.0555418 0.0534422 0.0537631 0.0536008 0.0554931 0.0532804 0.0556158 0.0533869 0.0533388 0.0537428 0.0555926 0.0533286 0.0534604 0.0555982 0.0538759 0.0531385 0.0535151 0.0556345 0.0538931 0.0532196 0.0536523 0.055626 0.0539799 0.0532653 0.055598 0.0540511 0.053754 0.0556174 0.0532519 0.0539288 0.0555801 0.0537971 0.0539904 0.0555544 0.0533224 0.0535362 0.0540698 0.0555122 0.0531557 0.0536622 0.0541255 0.055572 0.0531388 0.053588 0.0541967 0.0555175 0.053087 0.0537293 0.0555456 0.0542773 0.0531152 0.0528745 0.0556805 0.0543056 0.0529657 0.0528633 0.0542256 0.055683 0.0528822 0.0529756 0.0556772 0.0541566 0.0529867 0.0527321 0.0556736 0.0542151 0.053037 0.0528095 0.0556725 0.0538879 0.0531297 0.0556766 0.0528424 0.053957 0.0530417 0.0556713 0.0540443 0.0529028 0.0530986 0.0556553 0.0528902 0.053847 0.0529612 0.0556598 0.0529734 0.0539042 0.0556711 0.053147 0.0556438 0.0529155 0.0527585 0.054003 0.0556564 0.0530341 0.0541734 0.0528188 0.0530237 0.0540781 0.0556621 0.0527793 0.0526599 0.0556683 0.0541283 0.0556583 0.0526865 0.0526068 0.0542518 0.0556648 0.0524944 0.0526335 0.0540667 0.055661 0.0525403 0.0526795 0.0541382 0.0556544 0.0527669 0.0526198 0.0556659 0.05282 0.0542412 0.0527575 0.0556476 0.0527005 0.0556444 0.0528014 0.0542223 0.0556423 0.0526262 0.0529255 0.0543218 0.0525854 0.0556214 0.0543837 0.0526716 0.0544392 0.0556468 0.0528228 0.0525337 0.0544985 0.0556294 0.0527811 0.0530636 0.0556189 0.0544837 0.0532609 0.0530914 0.0555977 0.0543812 0.0533762 0.0530069 0.0556014 0.054446 0.0556103 0.0534139 0.0529348 0.0545111 0.0555714 0.053148 0.0528838 0.0545657 0.0555431 0.053285 0.0528567 0.0546224 0.0533204 0.0555314 0.0530057 0.0531818 0.0546248 0.0555813 0.0530097 0.0545941 0.053451 0.0555585 0.052765 0.0545576 0.055628 0.0535326 0.0529076 0.0546617 0.0556281 0.0533749 0.0556041 0.0528518 0.0546859 0.0555888 0.0527102 0.0534291 0.0543983 0.0527441 0.0555961 0.0530538 0.0543521 0.055588 0.0529382 0.0544627 0.0525519 0.0531145 0.0526097 0.0555864 0.0543514 0.0555726 0.052849 0.0527107 0.0544026 0.0555512 0.0530009 0.0526729 0.0544806 0.0545441 0.055554 0.0529486 0.0525773 0.0555551 0.0546826 0.0530705 0.0525768 0.054621 0.0555282 0.0532272 0.0545495 0.0532712 0.0525336 0.0555164 0.0546131 0.0531629 0.0534901 0.0546733 0.0554767 0.0533076 0.0554234 0.0535206 0.0547651 0.0529824 0.0554092 0.0547646 0.0533578 0.0531745 0.0547038 0.0554457 0.0533955 0.0554581 0.0548267 0.0534374 0.053201 0.0547492 0.0554806 0.0534294 0.0514838 0.0548831 0.0554358 0.0534392 0.0548152 0.0515646 0.0553902 0.0532771 0.0548775 0.0515905 0.0553512 0.0533016 0.0512778 0.0549108 0.0553199 0.0514593 0.0533035 0.0554008 0.0549908 0.051381 0.0532324 0.0553615 0.0514304 0.0532498 0.0553266 0.0549612 0.0531334 0.0514615 0.0554768 0.0549501 0.053165 0.0554968 0.0516037 0.0550128 0.0554503 0.0530592 0.0517283 0.0547394 0.0530291 0.055511 0.0548135 0.0518458 0.053132 0.0554482 0.0548909 0.0531638 0.0516257 0.0548148 0.0554138 0.052991 0.0515612 0.0547523 0.0553327 0.053098 0.0548128 0.055368 0.0517354 0.0530057 0.0554289 0.0548824 0.0512816 0.0553994 0.0529624 0.0549468 0.0511137 0.0553794 0.0533949 0.0513015 0.055335 0.0550578 0.0552694 0.0532385 0.0512929 0.0550092 0.0532588 0.0511475 0.0553035 0.0549516 0.0510035 0.0532901 0.0552431 0.054942 0.0511562 0.0531433 0.0552134 0.0514026 0.0531037 0.0550045 0.0552819 0.0516252 0.0532142 0.0552384 0.0550572 0.0514753 0.0551616 0.0530874 0.0543752 0.0512974 0.0550856 0.0544353 0.0530817 0.0513915 0.0551016 0.0544462 0.0515353 0.055189 0.0543017 0.0519439 0.0529582 0.0551418 0.0551374 0.054374 0.0530211 0.0519512 0.0544398 0.0531326 0.0521009 0.0550697 0.0545123 0.0530079 0.0545118 0.0552871 0.0517829 0.0529874 0.055236 0.0545813 0.0528599 0.0552366 0.0518031 0.0546536 0.0528779 0.0552829 0.0519466 0.0545298 0.0528684 0.0546476 0.0552969 0.0521468 0.0529455 0.054589 0.0552391 0.0522793 0.0528748 0.0551907 0.0543018 0.0551877 0.0528346 0.0523284 0.0543285 0.0551382 0.0526444 0.0543984 0.0520167 0.0550725 0.0527894 0.0519711 0.0550981 0.0543039 0.0529325 0.0551903 0.0521313 0.0543811 0.0551327 0.0528733 0.0544895 0.0521711 0.0528868 0.055088 0.0545745 0.0516665 0.0527262 0.0554798 0.0546423 0.0518115 0.0526946 0.0554838 0.0544457 0.0517257 0.0528116 0.0554432 0.0544756 0.0528577 0.0515247 0.0554957 0.0545367 0.0527487 0.051607 0.0555146 0.054622 0.0528496 0.0516426 0.0554728 0.0545557 0.0527385 0.0554033 0.0518726 0.0547372 0.0526095 0.05534 0.0547257 0.0526322 0.0521281 0.0554422 0.0548775 0.0519692 0.0554027 0.0525616 0.0547992 0.0553976 0.0518421 0.054862 0.0553481 0.0547828 0.0524735 0.0517552 0.0553461 0.0547137 0.0524961 0.0555213 0.0548384 0.0518808 0.0525856 0.0549324 0.052618 0.050867 0.055484 0.0510119 0.0554521 0.052448 0.0549951 0.0510611 0.0524809 0.0554855 0.0507726 0.0550463 0.050872 0.0554383 0.0524029 0.0549074 0.0554238 0.0509207 0.0549703 0.0553425 0.0512375 0.0523314 0.0549805 0.0553807 0.0510948 0.0527228 0.0550318 0.0553936 0.051313 0.0527067 0.0554129 0.0546948 0.0513646 0.0527037 0.0553642 0.0547632 0.0510163 0.0525678 0.0548245 0.0553313 0.0525745 0.0511308 0.0546867 0.0526405 0.0553022 0.0510966 0.0552499 0.0527109 0.0548192 0.0507153 0.0552839 0.0547599 0.0525025 0.0506342 0.0552324 0.0548915 0.0506511 0.0524857 0.0551958 0.054959 0.0507841 0.0551303 0.0525357 0.0504973 0.0550242 0.05512 0.0523651 0.0548849 0.0507001 0.0550679 0.0523423 0.0551324 0.0505363 0.052525 0.0551866 0.05501 0.050867 0.0523573 0.0550676 0.0549495 0.0509759 0.0524099 0.055305 0.0546925 0.0552277 0.0509689 0.0523209 0.0552469 0.0547441 0.0522068 0.0506708 0.0547897 0.0552838 0.0508245 0.0522143 0.0548001 0.0553163 0.0523989 0.0547818 0.050821 0.0552447 0.0522162 0.0548566 0.0508226 0.0551622 0.0548232 0.0521765 0.0548562 0.0551912 0.0509716 0.0548787 0.0522545 0.0548923 0.0550494 0.0514587 0.0520988 0.0549003 0.0551018 0.0515978 0.0549515 0.0520867 0.0549296 0.0514368 0.0551703 0.0549955 0.055105 0.0540499 0.0513033 0.0548606 0.0513 0.0539683 0.0549468 0.0550299 0.0514088 0.0549049 0.0538659 0.0515461 0.0546994 0.0548521 0.0546107 0.0516961 0.0539528 0.0549047 0.0546396 0.0516342 0.0549071 0.0545642 0.0538399 0.0517663 0.0549462 0.0547166 0.0549464 0.0514884 0.0546568 0.0538871 0.0549996 0.0545845 0.0514071 0.0550142 0.0537417 0.0545163 0.0550133 0.0545018 0.0537394 0.051546 0.0549966 0.0544387 0.053758 0.0511416 0.0544653 0.0550621 0.0536428 0.0543785 0.0511199 0.0550485 0.0546063 0.0512489 0.0549541 0.0537416 0.0545597 0.0510041 0.0549795 0.0544888 0.0549961 0.0538386 0.0510051 0.0550245 0.0547579 0.0537384 0.0550459 0.0511521 0.054794 0.0550465 0.05368 0.0546954 0.055028 0.051304 0.053577 0.0550783 0.0548464 0.0513405 0.0536254 0.0550948 0.0547993 0.0550537 0.0511675 0.0536206 0.0547384 0.0550993 0.053634 0.0550943 0.0511337 0.0547836 0.0534774 0.0551058 0.0547147 0.0512987 0.0535131 0.0551596 0.0545983 0.0551447 0.0533774 0.0524289 0.0546703 0.0535309 0.0551917 0.0545297 0.0525605 0.0551076 0.0535708 0.0545847 0.0546454 0.0550504 0.052293 0.0536749 0.0546818 0.0551481 0.0522349 0.0551074 0.0546241 0.0523501 0.0535038 0.0543085 0.0551268 0.0523969 0.0535097 0.0543949 0.0551626 0.0526117 0.0543262 0.0551381 0.0535935 0.0541803 0.0524929 0.0551858 0.0542654 0.0534328 0.0542423 0.0526927 0.055217 0.0533335 0.0544318 0.0552007 0.052531 0.0534274 0.054314 0.0525901 0.0552626 0.0543559 0.0533743 0.0541174 0.0552352 0.0520425 0.0533135 0.0540609 0.0521289 0.0548901 0.0533774 0.0540808 0.0521907 0.0549362 0.0542577 0.0532706 0.0519873 0.054218 0.0549411 0.0541567 0.0532709 0.0520282 0.0549989 0.0541152 0.052354 0.0532162 0.0549768 0.0544928 0.0522503 0.0549991 0.0531147 0.0544049 0.0524497 0.0550433 0.0543632 0.0533521 0.0521854 0.0550706 0.0533918 0.0544972 0.0550545 0.052228 0.0532856 0.0551294 0.0545479 0.0523416 0.0551254 0.0544128 0.0532521 0.0523844 0.0551057 0.0544598 0.0532243 0.0527328 0.0551788 0.0542185 0.0532019 0.0551648 0.0528514 0.0542951 0.0531354 0.0550483 0.0526567 0.0541609 0.0550107 0.0530378 0.0543282 0.0527463 0.0530157 0.0549785 0.0541986 0.0531396 0.0530473 0.055073 0.0531007 0.0542824 0.052931