# vtk DataFile Version 3.0
vtk output
ASCII
DATASET UNSTRUCTURED_GRID
POINTS 30052 float
0 0 0
1 0 0
1 1 0
0 1 0
0 0 0
0 0 0
1 0 0
1 1 0
0 1 0
0 0 0
0 0 0
1 0 0
1 1 0
0 1 0
0 0 0
0 0 0
1 0 0
1 1 0
0 1 0
0 0 0
0 0 0
1 0 0
1 1 0
0 1 0
0 0 0
0 0 0
1 0 0
1 1 0
0 1 0
0 0 0
0.77375 0 0
1 0 0
1 0.352107 0
0.957328 0.28912 0
0.779597 0.00978091 0
0.77375 0 0
0 0 0
1 0 0
1 1 0
0 1 0
0 0 0
0 0 0
1 0 0
1 1 0
0 1 0
0 0 0
0 0 0
1 0 0
1 1 0
0 1 0
0 0 0
0 0 0
1 0 0
1 1 0
0 1 0
0 0 0
0.710819 0 0
1 0 0
1 0.309404 0
0.905129 0.214842 0
0.710819 0 0
0 0 0
1 0 0
1 1 0
0 1 0
0 0 0
0 0 0
1 0 0
1 1 0
0 1 0
0 0 0
0 0 0
1 0 0
1 1 0
0 1 0
0 0 0
0 0 0
1 0 0
1 1 0
0 1 0
0 0 0
0 0 0
1 0 0
1 1 0
0 1 0
0 0 0
0 0 0
1 0 0
1 1 0
0 1 0
0 0 0
0.84167 0 0
1 0 0
1 0.338377 0
0.928748 0.192375 0
0.84167 0 0
0 0 0
1 0 0
1 1 0
0 1 0
0 0 0
0 0 0
1 0 0
1 1 0
0 1 0
0 0 0
0 0 0
1 0 0
1 1 0
0 1 0
0 0 0
0.915031 0 0
1 0 0
1 0.145138 0
0.915031 0 0
0 0 0
1 0 0
1 1 0
0 1 0
0 0 0
0 0 0
1 0 0
1 1 0
0 1 0
0 0 0
0.91575 0 0
1 0 0
1 0.153063 0
0.91575 0 0
0 0 0
1 0 0
1 1 0
0 1 0
0 0 0
0 0 0
1 0 0
1 1 0
0 1 0
0 0 0
0 0 0
1 0 0
1 1 0
0 1 0
0 0 0
0.88009 0 0
1 0 0
1 0.229713 0
0.88009 0 0
0 0 0
1 0 0
1 1 0
0 1 0
0 0 0
0 0 0
1 0 0
1 1 0
0 1 0
0 0 0
0.925855 0 0
1 0 0
1 0.140656 0
0.925855 0 0
0.926273 0 0
1 0 0
1 0.1258 0
0.968187 0.0743354 0
0.926273 0 0
0.885492 0 0
1 0 0
1 0.247019 0
0.885492 0 0
0.852955 0 0
1 0 0
1 0.327521 0
0.93636 0.191832 0
0.852955 0 0
0.929757 0 0
1 0 0
1 0.144495 0
0.929757 0 0
0 0 0
1 0 0
1 1 0
0 1 0
0 0 0
0 0.0181142 0
1 0.697289 0
1 1 0
0 1 0
0 0.0181142 0
0 0 0
1 0 0
1 1 0
0 1 0
0 0 0
0 0 0
1 0 0
1 1 0
0 1 0
0 0 0
0 0 0
1 0 0
1 1 0
0 1 0
0 0 0
0 0 0
0.292434 0 0
1 0.637605 0
1 1 0
0 1 0
0 0 0
0 0 0
1 0 0
1 1 0
0 1 0
0 0 0
0 0 0
1 0 0
1 1 0
0 1 0
0 0 0
0 0 0
1 0 0
1 1 0
0 1 0
0 0 0
0 0 0
1 0 0
1 1 0
0 1 0
0 0 0
0 0 0
1 0 0
1 1 0
0 1 0
0 0 0
0 0 0
1 0 0
1 1 0
0 1 0
0 0 0
0 0 0
1 0 0
1 1 0
0 1 0
0 0 0
0 0 0
0.103232 0 0
0.606867 0.387964 0
1 0.700954 0
1 1 0
0 1 0
0 0 0
0 0 0
1 0 0
1 1 0
0 1 0
0 0 0
0 0 0
1 0 0
1 1 0
0 1 0
0 0 0
0 0 0
1 0 0
1 1 0
0 1 0
0 0 0
0 0 0
1 0 0
1 1 0
0 1 0
0 0 0
0 0 0
1 0 0
1 1 0
0 1 0
0 0 0
0 0 0
0.0792168 0 0
0.604511 0.389355 0
1 0.69233 0
1 1 0
0 1 0
0 0 0
0 0 0
1 0 0
1 1 0
0 1 0
0 0 0
0 0 0
1 0 0
1 1 0
0 1 0
0 0 0
0 0 0
1 0 0
1 1 0
0 1 0
0 0 0
0 0 0
1 0 0
1 1 0
0 1 0
0 0 0
0 0 0
0.216688 0 0
1 0.565678 0
1 1 0
0 1 0
0 0 0
0 0 0
1 0 0
1 1 0
0 1 0
0 0 0
0 0 0
1 0 0
1 1 0
0 1 0
0 0 0
0 0 0
1 0 0
1 1 0
0 1 0
0 0 0
0 0 0
0.393655 0 0
1 0.603378 0
1 1 0
0 1 0
0 0 0
0 0 0
1 0 0
1 1 0
0 1 0
0 0 0
0.985895 0 0
1 0 0
1 0.0202249 0
0.985895 0 0
0 0 0
1 0 0
1 1 0
0 1 0
0 0 0
0 0 0
0.245465 0 0
0.453187 0.135529 0
0.809389 0.37183 0
1 0.504579 0
1 1 0
0 1 0
0 0 0
0 0 0
1 0 0
1 1 0
0 1 0
0 0 0
0 0 0
1 0 0
1 1 0
0 1 0
0 0 0
0 0 0
0.276701 0 0
1 0.627767 0
1 1 0
0 1 0
0 0 0
0 0 0
1 0 0
1 1 0
0 1 0
0 0 0
0 0 0
1 0 0
1 1 0
0 1 0
0 0 0
0 0 0
1 0 0
1 1 0
0 1 0
0 0 0
0 0 0
0.376805 0 0
1 0.581629 0
1 1 0
0 1 0
0 0 0
0 0 0
1 0 0
1 1 0
0 1 0
0 0 0
0 0 0
1 0 0
1 1 0
0 1 0
0 0 0
0 0 0
0.198855 0 0
1 0.552822 0
1 1 0
0 1 0
0 0 0
0 0 0
1 0 0
1 1 0
0 1 0
0 0 0
0 0 0
1 0 0
1 1 0
0 1 0
0 0 0
0 0.0424588 0
1 0.680799 0
1 1 0
0 1 0
0 0.0424588 0
0 0 0
1 0 0
1 1 0
0 1 0
0 0 0
0 0 0
1 0 0
1 1 0
0 1 0
0 0 0
0 0.0552689 0
1 0.666615 0
1 1 0
0 1 0
0 0.0552689 0
0 0 0
1 0 0
1 1 0
0 1 0
0 0 0
0 0 0
1 0 0
1 1 0
0 1 0
0 0 0
0 0.144223 0
0.168312 0.229917 0
0.855319 0.591841 0
1 0.671592 0
1 1 0
0 1 0
0 0.144223 0
0 0 0
1 0 0
1 1 0
0 1 0
0 0 0
0 0.0706824 0
0.231544 0.213642 0
0.921824 0.653279 0
1 0.704903 0
1 1 0
0 1 0
0 0.0706824 0
0 0 0
1 0 0
1 1 0
0 1 0
0 0 0
0 0 0
1 0 0
1 1 0
0 1 0
0 0 0
0 0 0
1 0 0
1 1 0
0 1 0
0 0 0
0 0 0
0.0691141 0 0
1 0.65393 0
1 1 0
0 1 0
0 0 0
0 0 0
1 0 0
1 1 0
0 1 0
0 0 0
0 0 0
1 0 0
1 1 0
0 1 0
0 0 0
0 0 0
1 0 0
1 1 0
0 1 0
0 0 0
0.98983 0 0
1 0 0
1 0.0219011 0
0.98983 0 0
0 0 0
1 0 0
1 1 0
0 1 0
0 0 0
0 0 0
0.187424 0 0
0.255589 0.0532916 0
0.754141 0.451794 0
1 0.655618 0
1 1 0
0 1 0
0 0 0
0 0 0
1 0 0
1 1 0
0 1 0
0 0 0
0 0 0
1 0 0
1 1 0
0 1 0
0 0 0
0.992179 0 0
1 0 0
1 0.01226 0
0.992179 0 0
0 0 0
1 0 0
1 1 0
0 1 0
0 0 0
0 0 0
1 0 0
1 1 0
0 1 0
0 0 0
0 0 0
1 0 0
1 1 0
0 1 0
0 0 0
0 0 0
0.238445 0 0
1 0.611541 0
1 1 0
0 1 0
0 0 0
0 0 0
1 0 0
1 1 0
0 1 0
0 0 0
0 0 0
1 0 0
1 1 0
0 1 0
0 0 0
0 0 0
1 0 0
1 1 0
0 1 0
0 0 0
0 0 0
1 0 0
1 1 0
0 1 0
0 0 0
0 0 0
0.115861 0 0
0.554012 0.337825 0
1 0.704528 0
1 1 0
0 1 0
0 0 0
0 0 0
1 0 0
1 1 0
0 1 0
0 0 0
0 0 0
1 0 0
1 1 0
0 1 0
0 0 0
0.954813 0 0
1 0 0
1 0.0893854 0
0.983289 0.0583439 0
0.954813 0 0
0 0 0
1 0 0
1 1 0
0 1 0
0 0 0
0 0 0
1 0 0
1 1 0
0 1 0
0 0 0
0 0 0
1 0 0
1 1 0
0 1 0
0 0 0
0 0 0
1 0 0
1 1 0
0 1 0
0 0 0
0 0 0
1 0 0
1 1 0
0 1 0
0 0 0
0 0 0
1 0 0
1 1 0
0 1 0
0 0 0
0 0 0
1 0 0
1 1 0
0 1 0
0 0 0
0 0 0
1 0 0
1 1 0
0 1 0
0 0 0
0 0 0
1 0 0
1 1 0
0 1 0
0 0 0
0 0 0
1 0 0
1 1 0
0 1 0
0 0 0
0 0 0
1 0 0
1 1 0
0 1 0
0 0 0
0 0 0
1 0 0
1 1 0
0 1 0
0 0 0
0 0 0
1 0 0
1 1 0
0 1 0
0 0 0
0.744226 0 0
1 0 0
1 0.314426 0
0.911049 0.212838 0
0.744226 0 0
0 0 0
1 0 0
1 1 0
0 1 0
0 0 0
0 0 0
1 0 0
1 1 0
0 1 0
0 0 0
0 0 0
1 0 0
1 1 0
0 1 0
0 0 0
0.736131 0 0
1 0 0
1 0.368553 0
0.929066 0.276904 0
0.736131 0 0
0 0 0
1 0 0
1 1 0
0 1 0
0 0 0
0 0 0
1 0 0
1 1 0
0 1 0
0 0 0
0 0 0
1 0 0
1 1 0
0 1 0
0 0 0
0 0 0
1 0 0
1 1 0
0 1 0
0 0 0
0 0 0
1 0 0
1 1 0
0 1 0
0 0 0
0.794112 0 0
1 0 0
1 0.23996 0
0.794112 0 0
0 0 0
1 0 0
1 1 0
0 1 0
0 0 0
0 0 0
1 0 0
1 1 0
0 1 0
0 0 0
0.78109 0 0
1 0 0
1 0.23841 0
0.78109 0 0
0 0 0
1 0 0
1 1 0
0 1 0
0 0 0
0 0 0
1 0 0
1 1 0
0 1 0
0 0 0
0 0 0
1 0 0
1 1 0
0 1 0
0 0 0
0 0 0
1 0 0
1 1 0
0 1 0
0 0 0
0.630848 0 0
1 0 0
1 0.364185 0
0.630848 0 0
0 0 0
1 0 0
1 1 0
0 1 0
0 0 0
0 0 0
1 0 0
1 1 0
0 1 0
0 0 0
0.735137 0 0
1 0 0
1 0.37702 0
0.989043 0.362831 0
0.735137 0 0
0 0 0
1 0 0
1 1 0
0 1 0
0 0 0
0 0 0
1 0 0
1 1 0
0 1 0
0 0 0
0 0 0
1 0 0
1 1 0
0 1 0
0 0 0
0 0 0
1 0 0
1 1 0
0 1 0
0 0 0
0.767093 0 0
1 0 0
1 0.30658 0
0.920537 0.209627 0
0.767093 0 0
0 0 0
1 0 0
1 1 0
0 1 0
0 0 0
0 0 0
1 0 0
1 1 0
0 1 0
0 0 0
0 0 0
1 0 0
1 1 0
0 1 0
0 0 0
0 0 0
1 0 0
1 1 0
0 1 0
0 0 0
0.872308 0 0
1 0 0
1 0.313661 0
0.947576 0.191032 0
0.872308 0 0
0 0 0
1 0 0
1 1 0
0 1 0
0 0 0
0 0 0
1 0 0
1 1 0
0 1 0
0 0 0
0 0 0
1 0 0
1 1 0
0 1 0
0 0 0
0 0 0
1 0 0
1 1 0
0 1 0
0 0 0
0.810104 0 0
1 0 0
1 0.22098 0
0.811022 0.00124072 0
0.810104 0 0
0 0 0
1 0 0
1 1 0
0 1 0
0 0 0
0 0 0
1 0 0
1 1 0
0 1 0
0 0 0
0 0 0
1 0 0
1 1 0
0 1 0
0 0 0
0.894047 0 0
1 0 0
1 0.348442 0
0.959859 0.225962 0
0.894047 0 0
0 0 0
1 0 0
1 1 0
0 1 0
0 0 0
0 0 0
1 0 0
1 1 0
0 1 0
0 0 0
0 0 0
1 0 0
1 1 0
0 1 0
0 0 0
0.850645 0 0
1 0 0
1 0.276106 0
0.900917 0.0979725 0
0.850645 0 0
0 0 0
1 0 0
1 1 0
0 1 0
0 0 0
0 0 0
1 0 0
1 1 0
0 1 0
0 0 0
0 0 0
1 0 0
1 1 0
0 1 0
0 0 0
0 0 0
1 0 0
1 1 0
0 1 0
0 0 0
0.876101 0 0
1 0 0
1 0.332395 0
0.94467 0.191239 0
0.876101 0 0
0 0 0
1 0 0
1 1 0
0 1 0
0 0 0
0 0 0
1 0 0
1 1 0
0 1 0
0 0 0
0.887094 0 0
1 0 0
1 0.3398 0
0.947861 0.191012 0
0.887094 0 0
0 0 0
1 0 0
1 1 0
0 1 0
0 0 0
0.887056 0 0
1 0 0
1 0.31872 0
0.952164 0.190705 0
0.887056 0 0
0 0 0
1 0 0
1 1 0
0 1 0
0 0 0
0 0 0
1 0 0
1 1 0
0 1 0
0 0 0
0 0 0
1 0 0
1 1 0
0 1 0
0 0 0
0 0 0
1 0 0
1 1 0
0 1 0
0 0 0
0.688127 0 0
1 0 0
1 0.385357 0
0.892883 0.26248 0
0.770523 0.107999 0
0.688127 0 0
0 0 0
1 0 0
1 1 0
0 1 0
0 0 0
0 0 0
1 0 0
1 1 0
0 1 0
0 0 0
0 0 0
1 0 0
1 1 0
0 1 0
0 0 0
0.74757 0 0
1 0 0
1 0.381064 0
0.987349 0.363722 0
0.74757 0 0
0 0 0
1 0 0
1 1 0
0 1 0
0 0 0
0 0 0
1 0 0
1 1 0
0 1 0
0 0 0
0 0 0
1 0 0
1 1 0
0 1 0
0 0 0
0.655778 0 0
1 0 0
1 0.407763 0
0.812769 0.192019 0
0.655778 0 0
0 0 0
1 0 0
1 1 0
0 1 0
0 0 0
0 0 0
1 0 0
1 1 0
0 1 0
0 0 0
0.715268 0 0
1 0 0
1 0.394437 0
0.896712 0.261374 0
0.771399 0.082879 0
0.715268 0 0
0.780208 0 0
1 0 0
1 0.307254 0
0.923705 0.208555 0
0.780208 0 0
0.791958 0 0
1 0 0
1 0.37207 0
0.939629 0.273022 0
0.791958 0 0
0.83553 0 0
1 0 0
1 0.356854 0
0.966408 0.288462 0
0.83553 0 0
0 0 0
0.20688 0 0
0 0.120433 0
0 0 0
0.835947 0 0
1 0 0
1 0.224754 0
0.835947 0 0
0.805047 0 0
1 0 0
1 0.375182 0
0.941566 0.272309 0
0.805047 0 0
0 0 0
0.320361 0 0
0 0.215376 0
0 0 0
0.840645 0 0
1 0 0
1 0.232823 0
0.840645 0 0
0.962448 0 0
1 0 0
1 0.0809023 0
0.986905 0.0545158 0
0.962448 0 0
0.955661 0 0
1 0 0
1 0.106687 0
0.955661 0 0
0 0 0
0.00548503 0 0
0 0.0018339 0
0 0 0
0.939314 0 0
1 0 0
1 0.135705 0
0.939314 0 0
0.980306 0 0
1 0 0
1 0.0474784 0
0.997901 0.0428719 0
0.980306 0 0
0.685738 0 0
1 0 0
1 0.171615 0
0.711097 0.0148758 0
0.685738 0 0
0.927056 0 0
1 0 0
1 0.214147 0
0.927056 0 0
0 0 0
0.31077 0 0
0 0.148928 0
0 0 0
0 0 0
0.0193713 0 0
0 0.0353701 0
0 0 0
0.969897 0 0
1 0 0
1 0.0777015 0
0.969897 0 0
0 0 0
0.0173706 0 0
0 0.0290979 0
0 0 0
0 0 0
0.285509 0 0
0 0.176791 0
0 0 0
0.772537 0 0
1 0 0
1 0.11457 0
0.772537 0 0
0 0 0
0.402982 0 0
0 0.211978 0
0 0 0
0 0 0
0.0314547 0 0
0 0.0625744 0
0 0 0
0 0 0
0.355537 0 0
0 0.173461 0
0 0 0
0 0 0
0.0534489 0 0
0 0.111099 0
0 0 0
0 0 0
0.0538046 0 0
0 0.10332 0
0 0 0
0 0 0
0.0954467 0 0
0 0.234661 0
0 0 0
0.540437 0 0
1 0 0
1 0.339999 0
0.708384 0.127363 0
0.540437 0 0
0 0 0
0.0110296 0 0
0 0.00422929 0
0 0 0
0.617189 0 0
1 0 0
1 0.242178 0
0.875339 0.165071 0
0.617189 0 0
0.66367 0 0
1 0 0
1 0.197931 0
0.691192 0.0174135 0
0.66367 0 0
0 0 0
0.0129513 0 0
0 0.0119825 0
0 0 0
0 0 0
0.0125958 0 0
0 0.00435527 0
0 0 0
0 0 0
0.543515 0 0
0 0.3044 0
0 0 0
0 0 0
0.351923 0 0
0 0.144606 0
0 0 0
0 0 0
0.0961571 0 0
0.552346 0.338762 0
1 0.693206 0
1 1 0
0 1 0
0 0 0
0.776052 0 0
1 0 0
1 0.0805826 0
0.776052 0 0
0 0 0
0.167462 0 0
0.23807 0.0530034 0
0.75533 0.449825 0
1 0.644558 0
1 1 0
0 1 0
0 0 0
0 0 0
0.528455 0 0
0 0.27723 0
0 0 0
0.641529 0 0
1 0 0
1 0.231448 0
0.670421 0.0200615 0
0.641529 0 0
0.740614 0 0
1 0 0
1 0.141893 0
0.740614 0 0
0 0 0
0.0289449 0 0
0.253775 0.251578 0
0.820943 0.905506 0
0.899712 1 0
0 1 0
0 0 0
0.711449 0 0
1 0 0
1 0.172027 0
0.711449 0 0
0 0 0
0.233467 0 0
0.481708 0.332029 0
0.948253 1 0
0 1 0
0 0 0
0.658458 0 0
1 0 0
1 0.120117 0
0.911368 0.090146 0
0.658458 0 0
0 0 0
0.344485 0 0
0.582236 0.354087 0
0.999395 1 0
0 1 0
0 0 0
0.733549 0 0
1 0 0
[...]
CELL_DATA 5737
FIELD FieldData 3
weight 1 5737 float
 1.0096 1.00336 1.00952 1.00932 1.01568 1.02172 0.834126 1.01541 0.990516 0.996835 0.997065 0.840416 0.99083 1.00314 0.997027 0.996883 1.00301 1.00918 0.822094 1.00293 1.00947 0.997065 0.796885 1.01577 1.00293 0.80299 1.00317 1.01574 1.0094 0.803333 1.00925 1.02211 0.797037 0.797012 0.809212 0.815804 0.80313 1.01577 1.15921 1.02196 1.02203 1.02832 1.17792 1.00926 1.00941 1.01575 1.01553 1.01586 1.02208 1.02795 1.16564 1.02179 1.02185 1.0219 1.02819 1.02824 1.16541 1.02801 1.01577 1.02207 1.03456 1.17212 1.02808 1.02812 1.04051 1.1654 1.03443 0.778243 1.0346 1.17208 1.03447 1.04084 1.178 1.04667 1.04085 0.990755 1.18427 0.996827 0.996757 1.17837 0.996965 1.0029 1.17184 1.00307 1.00324 1.17802 1.00295 1.00312 1.17212 1.00917 1.17823 1.0031 1.00959 1.00957 1.1718 1.00958 1.01586 1.01583 0.784346 1.01573 1.1844 1.022 1.01566 0.778311 1.0094 1.01558 1.02163 1.17814 1.02195 1.02795 1.00312 1.00954 1.18428 1.00311 1.00922 0.790397 1.00943 1.01584 1.00329 1.00919 1.00916 1.01569 1.01564 1.01577 1.0221 1.02793 1.02202 1.02805 1.02201 0.840523 1.02182 1.02187 1.02788 0.846918 1.02809 1.03441 1.03454 1.02794 1.02831 0.82813 1.03413 1.03433 0.82797 1.02184 1.02798 1.0344 1.03427 0.852923 1.04076 1.04067 0.846757 1.04677 1.0345 1.04075 1.04053 0.834289 1.05301 1.04691 1.04666 1.05943 0.809618 1.04672 1.04682 1.05327 1.05327 0.821657 1.05943 1.0531 1.04071 0.809212 1.03455 1.03416 1.04067 0.821968 1.04671 1.04061 1.04696 1.03437 0.815671 1.03431 1.04079 0.815851 1.04058 0.809436 1.0467 1.05305 1.05302 1.04695 0.853086 1.05325 1.05337 1.05943 0.847051 1.05917 1.04687 1.05327 0.859253 1.05301 1.05929 0.853217 0.834228 0.840697 0.828 0.702997 0.8221 0.84075 0.709412 0.828229 0.79087 0.796995 0.728257 0.803007 0.78414 0.746993 0.802983 0.734283 0.740782 0.790537 0.740586 0.703047 0.746832 0.740491 0.747101 0.728334 0.74664 0.746789 0.753083 0.759466 0.752882 0.753136 0.753375 0.759504 0.752928 0.778352 0.765856 1.19054 0.765624 1.19071 0.77164 0.759458 0.753031 1.16553 0.759433 1.17813 0.778322 1.17805 0.771895 1.17817 0.765393 1.17202 0.778255 1.18436 0.721732 1.17803 0.734561 1.18454 1.17811 1.1845 0.728118 1.18453 0.721665 1.19075 0.803069 1.18454 0.74694 0.81556 1.19066 0.796876 1.1843 0.784188 1.19705 1.19076 0.821957 1.19706 1.19046 0.809198 0.740708 1.19043 0.765865 1.19664 0.75297 1.19686 0.78431 1.19671 0.790552 0.772076 1.19705 1.17196 0.772053 1.17804 1.18425 0.778368 0.946634 1.1779 1.18418 0.75923 1.18454 1.18414 0.940873 1.19044 0.940849 1.19085 0.765667 0.934133 1.1842 0.953131 0.75932 1.1908 0.94665 0.772003 1.19693 0.940684 1.19066 0.790874 0.9344 1.19069 1.19063 0.784139 0.928132 1.19684 0.921757 0.797085 1.19674 0.921693 1.19667 0.928048 0.784255 1.19686 0.922109 0.790726 1.1904 0.734156 0.953341 1.19673 0.734199 0.815395 0.953341 0.7344 1.19665 0.959501 0.803001 0.965558 0.734325 0.965434 1.17815 0.959615 0.740658 0.80926 0.946719 1.17806 1.18419 0.746736 0.934574 0.802927 0.928301 1.18441 0.953117 0.78449 0.934306 1.17815 1.17799 0.796685 1.17171 0.940692 1.17803 0.909572 0.790489 1.17166 0.734178 0.915789 0.809496 1.17817 0.809215 1.18419 0.897039 1.19038 0.915629 0.803038 1.1844 0.90913 1.19086 0.728299 0.902925 1.19085 0.740771 1.18416 0.740522 0.890461 0.834414 1.18417 0.746708 0.871711 0.746764 1.17811 0.828007 0.87803 0.746686 1.1782 0.815566 0.897014 0.753038 1.18413 0.878045 0.840795 1.18462 0.72814 0.921956 1.19086 1.17171 0.840522 0.915584 1.17174 1.17824 1.17799 0.834602 0.928226 1.17804 0.747053 0.821786 1.17834 1.18446 0.734372 1.17795 0.815675 0.915618 1.18444 0.759226 1.18416 1.17817 0.82208 0.759343 0.921884 1.18435 1.18436 0.815726 1.18439 0.909595 1.17819 0.765811 0.828253 0.903018 1.18427 0.753075 1.18422 1.18446 0.840761 1.19079 1.18429 1.18425 0.740441 0.834518 0.884586 1.19064 0.84068 0.734209 0.915398 1.19081 0.740575 0.909172 0.796682 1.19697 0.740868 0.89074 1.19676 0.790518 0.7471 1.19042 0.890391 0.971928 0.784477 0.752881 1.18428 0.959315 0.746649 0.965765 0.803296 0.978144 1.19064 0.978321 0.796851 0.971664 0.747002 1.1842 0.803149 0.740697 1.18454 0.953245 0.803278 0.746725 1.19701 0.946741 1.19692 0.753249 0.959528 0.777988 1.1906 0.947029 0.753221 0.784257 1.19669 0.7658 0.959151 0.790695 0.990554 0.972014 1.19684 0.965511 0.996833 0.753065 0.99066 0.777984 1.19678 0.98433 0.965808 0.809235 0.971844 0.97169 0.965771 0.978354 0.803034 0.972051 0.978071 0.759595 0.809352 1.19707 0.978118 0.765844 0.797009 0.821893 0.940462 0.759338 1.19062 0.80925 0.940507 0.759569 1.19687 0.934243 0.827908 1.19085 0.928199 0.765618 0.815579 0.934232 0.834433 1.19702 0.765471 0.828237 0.959603 0.765517 0.840563 0.771878 0.928081 0.834217 0.771986 1.1968 0.921815 0.821923 1.19672 0.771774 0.897053 0.821834 1.18428 0.77801 0.815849 0.896805 1.18441 0.840444 0.784587 0.90936 0.828068 1.1908 0.765853 0.834202 0.921759 1.19041 0.759388 1.19058 0.90312 0.759315 1.19711 0.946675 0.76544 1.18454 0.934483 0.772085 1.19062 0.772073 0.765542 1.19062 0.940707 0.771674 0.771909 1.19064 0.959469 0.7655 0.952953 0.771924 1.19056 0.946735 1.19057 0.7782 1.19047 0.778211 0.747049 0.928116 0.778147 1.19687 0.915689 0.778057 0.765558 0.915669 1.19677 0.784136 0.759546 1.19683 0.92807 0.765429 0.784286 1.19702 0.79054 0.921756 0.772009 0.77819 0.859465 0.772081 1.19712 0.784504 0.77822 0.871907 0.784344 0.765729 1.19694 0.84081 0.784418 1.19697 0.753265 0.877913 0.790506 0.846761 1.19666 0.790651 0.834521 0.796781 0.771743 1.19696 0.828148 0.790649 1.06545 1.06572 0.765794 1.05954 0.821899 1.07169 0.778252 1.07181 1.06557 0.840675 1.06539 1.05949 1.05939 1.06568 1.07185 0.828035 1.06581 1.07796 1.08418 1.07815 0.834508 1.09047 1.08447 1.07835 0.834144 1.07163 1.07164 0.884437 1.08435 1.08446 1.07796 0.884326 1.07808 1.05956 0.740379 0.865598 1.05926 1.06552 1.05915 1.06586 0.871672 1.06567 1.07191 1.05297 0.865537 0.715793 1.05315 1.05925 1.05917 1.07189 0.722035 0.89057 1.0779 1.07187 1.07796 0.878322 1.07826 1.08435 0.709471 0.859236 1.06587 0.721791 1.06582 0.853065 1.07188 0.753365 1.07206 1.09684 0.846914 1.09051 1.0905 0.859216 1.09663 1.10336 0.84701 0.740457 1.09695 1.09054 1.08442 1.09044 1.09696 0.840692 0.772119 1.0968 1.09068 0.753072 1.10318 0.765806 1.10302 0.815859 1.10932 0.753344 1.12167 1.10956 0.777895 1.11543 0.809158 0.759188 1.10933 1.10313 0.752982 1.09674 1.10326 0.759317 0.734409 0.815762 1.10943 1.10918 1.10943 1.08415 1.09058 0.740663 1.08439 0.797074 1.0969 1.09078 0.759269 1.09706 0.734336 1.09067 1.0782 0.803123 0.765799 0.759372 1.07821 1.0844 1.08414 0.759295 0.746846 1.09689 1.10337 1.10303 1.10332 0.752985 0.765469 0.796629 1.10946 0.771671 0.790565 1.09676 1.09079 1.09677 0.759215 1.10334 0.790464 1.10928 0.759136 1.1155 0.784208 1.09675 1.05314 0.765544 1.04669 0.765749 0.797116 0.765776 1.05323 1.05942 1.05328 0.765496 1.05335 0.803218 1.04663 0.834416 1.04065 0.771674 1.04695 0.796655 1.03413 0.809375 1.0658 1.05927 0.765863 0.803336 1.06548 1.0595 0.803191 1.07163 0.784156 1.07209 0.77163 1.06559 0.79044 0.821897 1.0594 1.04688 0.772005 1.05301 0.784241 1.06553 1.07207 0.828143 1.05955 0.802976 0.777945 1.02819 1.028 0.796839 1.02826 0.77791 0.809259 1.04048 1.03434 0.796955 1.03413 1.02201 0.778222 0.796693 0.822015 1.01573 0.78436 1.02808 1.0221 0.815438 1.04705 1.04667 0.815485 0.790831 1.04044 0.809623 1.05333 1.05288 0.828246 1.04686 1.03458 1.0406 0.834298 1.03433 0.790573 1.02195 1.02799 0.821995 1.04058 0.79673 0.828256 1.02792 1.07806 1.07178 0.809424 0.752955 1.078 1.09058 0.809166 1.07798 1.08436 1.07827 0.802905 1.06567 1.078 1.07196 1.08458 0.809568 0.902894 1.09044 1.09039 0.822009 1.09688 1.0908 1.0971 0.81542 1.08425 0.896649 0.822016 1.08414 1.07796 1.08461 1.08423 0.815498 1.07826 0.890639 0.790497 1.05957 0.784163 1.05923 1.06543 0.790679 0.884549 1.05311 1.072 1.06559 0.77197 1.05933 1.04697 0.903115 1.04042 0.79705 1.03461 1.04087 0.790744 1.04691 0.909199 0.765855 0.778239 1.07182 1.06577 0.771835 1.07188 0.771866 0.884458 0.759423 1.07166 1.07187 0.859532 1.05333 0.778155 1.05933 1.05302 1.06547 0.865814 0.777941 1.05913 0.771907 1.1158 0.777999 0.852998 1.12173 0.778166 0.784134 1.11571 1.12798 1.12795 0.803317 0.772036 1.1221 0.853109 1.11562 0.796638 1.11586 1.11543 0.846948 1.12205 1.12196 0.765751 0.865456 1.11552 1.12202 1.12824 0.815437 0.871943 1.13452 1.12799 1.13459 1.13415 0.77169 1.12835 0.859541 1.12171 0.809212 1.13434 1.12813 0.78421 1.10322 0.802993 1.10924 0.909215 1.11558 0.79043 0.81558 1.1221 1.10949 1.10943 0.896863 0.784516 1.10306 0.78451 1.10922 1.10298 0.796998 1.12177 0.890795 0.790756 1.11562 1.12207 1.11585 0.784475 0.784145 1.1279 1.12807 1.12799 1.11564 0.915671 1.10933 1.12823 1.12208 1.10929 1.13438 0.809422 1.11573 0.896848 1.1155 0.796898 1.13428 0.796869 0.903179 1.14049 1.14053 0.771838 0.802992 1.14042 1.1471 0.784418 0.796871 1.13413 0.871999 1.12209 1.12806 0.772038 0.790768 1.13424 0.878118 1.14057 1.14083 0.777982 1.14051 1.14071 0.865537 1.14702 0.77792 1.15318 0.846897 1.14691 1.15317 0.878214 0.778165 1.14072 0.853098 1.14667 1.13415 0.853313 0.790568 1.14711 0.853106 1.14073 0.790412 1.13434 0.859549 1.12203 1.13428 0.803106 1.12825 1.14044 1.12165 0.80314 1.12813 0.865786 1.12818 0.872021 1.12207 0.797097 1.13426 0.871752 1.1346 1.1342 0.828067 1.14706 1.15315 0.796784 1.14067 0.859236 1.14683 1.1408 0.803357 1.14076 0.809499 1.12797 0.865399 1.14052 1.13437 1.14666 0.815641 0.809622 1.10294 1.09693 0.846726 1.0906 0.840624 1.10332 0.771856 1.10295 1.0969 0.76543 1.10294 0.834197 1.08448 1.07824 1.09086 0.777882 1.09044 0.853101 1.09074 1.1096 0.821988 0.771817 1.10945 1.11542 1.11541 1.10325 0.809532 0.778229 1.09666 0.846962 1.10332 0.771712 1.09695 0.871703 0.790764 1.10962 1.10947 0.778175 0.86563 1.09087 1.09708 1.07791 0.784587 1.07803 1.08413 0.85948 1.07211 1.07822 1.06539 0.815663 1.06562 0.865503 1.05921 0.778288 1.06568 1.06553 0.803241 1.09709 1.08423 1.0904 0.790626 0.797117 1.10305 0.878357 1.08417 1.09059 1.08425 0.796985 1.09043 0.778208 1.07194 0.871664 1.07791 0.846846 0.78422 1.09692 1.08449 1.07792 1.12186 0.79052 0.877938 1.11556 0.834135 1.12163 0.796724 1.12805 1.122 0.884577 1.12176 0.784429 1.11575 0.890494 0.822072 0.784488 1.10305 1.11546 0.890579 1.10962 1.11544 0.79084 1.12179 1.12796 0.815495 1.13418 0.884339 0.784246 1.12792 1.13421 0.84667 1.1344 0.878223 0.790584 1.12823 1.12182 1.12834 1.11543 0.840798 0.796625 1.13426 1.12197 0.878225 1.10945 0.790672 1.09671 0.82792 1.10289 0.871738 0.797119 1.10334 1.10961 1.1157 0.790638 0.884405 0.80951 1.10957 0.802908 1.09062 1.09674 0.803091 1.09669 0.89053 0.796921 1.10326 1.1029 1.12189 0.809285 1.10937 0.802911 0.884185 1.12789 0.815611 1.11563 0.890446 0.821631 1.1154 0.809367 0.796948 0.85322 1.09702 0.815603 1.10941 1.12179 0.846958 0.790395 0.809263 1.10939 0.796971 0.852991 0.809302 0.796809 1.10307 0.846627 1.00304 0.802955 0.996692 0.809479 0.984175 0.865429 1.00925 0.803257 1.00306 0.98446 0.859204 0.978203 0.990771 0.809388 0.809319 0.990828 1.01578 0.859211 1.00925 0.803222 1.01574 1.02803 0.815853 0.796858 1.02211 1.01574 0.803108 1.00333 0.996645 0.852921 0.997017 0.803351 0.990813 0.846698 1.00957 0.809592 0.996906 0.840657 0.834164 0.80955 1.00331 0.846699 0.984621 0.815624 0.815668 0.859146 0.815496 0.953271 0.853361 0.809208 0.827919 0.9405 0.815531 0.821662 0.859185 0.965779 0.821773 0.984601 0.821676 0.871918 0.846863 0.865543 0.828116 0.959517 0.828098 0.884504 0.821659 0.878292 0.815505 0.85317 0.934502 0.884461 0.822111 0.878276 0.828109 0.934282 0.86538 0.815439 0.87189 0.921845 0.853212 0.821974 0.865434 0.940485 0.834142 0.865749 0.947022 0.865789 0.828164 0.934573 0.871874 0.928329 0.871783 0.821742 0.834342 0.990389 0.828279 0.878348 0.796941 0.971892 0.87829 0.790616 0.821718 1.00316 0.803124 0.834197 0.871788 0.997109 0.828356 0.796784 0.977911 0.89671 0.802998 0.83427 0.809437 0.965436 0.890539 0.84712 0.809562 0.940755 0.803344 0.8404 0.896845 0.815535 0.946702 0.909127 0.872097 0.809189 0.953263 0.903333 0.821989 0.853354 0.971974 0.821719 0.903197 0.821843 0.909566 0.859338 0.959204 0.827925 0.897047 0.87204 0.952934 0.80331 1.03439 0.903339 1.02791 0.822089 1.0221 0.865697 1.02207 1.03451 0.815814 1.02816 1.01586 0.897109 1.00933 0.81576 1.00924 0.878143 1.01555 0.8971 1.02194 0.809224 0.872071 0.903002 0.815875 1.0154 0.903274 1.04672 1.04038 0.909501 0.8904 1.05301 0.834281 1.04667 1.0405 0.884387 0.909342 0.815673 1.02789 0.909134 0.915702 1.03432 0.922027 0.822122 0.915548 0.884554 0.927912 1.02168 0.92201 0.828309 1.03423 0.921963 0.909586 0.834374 1.03452 0.921716 0.834416 0.896895 0.915547 1.02799 0.834279 0.915603 0.984262 0.828353 0.915401 0.990431 0.927959 0.934521 0.978215 0.840392 0.878342 0.921658 0.928341 0.997091 0.828284 0.884147 0.903108 0.984168 0.834275 0.890784 0.990536 0.896902 0.896751 0.827887 0.965675 0.890578 0.890439 0.834449 0.884578 0.959549 0.909609 0.834209 0.965598 0.902945 0.840838 0.903031 0.978126 0.896984 0.840817 0.896825 0.972024 0.902911 0.840537 0.971835 0.884175 0.909285 0.840788 0.959427 0.884294 0.922081 0.847023 0.890474 1.0033 0.915785 0.846855 0.902978 0.996981 0.928123 0.853265 0.896839 0.984247 0.940795 0.847036 1.01557 0.89085 0.853222 0.834609 1.00923 0.915869 0.840706 0.846817 0.921831 1.00295 0.852996 0.840776 0.977935 0.915745 0.846867 0.971772 0.928223 0.846662 0.859247 0.921643 0.859609 0.965756 0.92201 0.990751 0.840469 0.852893 0.978089 0.984322 0.915604 0.840792 0.915609 0.921668 0.859354 0.852876 0.909388 0.915742 0.865452 0.859625 0.909292 0.903031 0.859187 0.902942 0.865811 0.928144 0.92821 0.86544 0.87827 0.921825 0.871976 0.896831 0.872108 0.915722 0.865544 0.840659 0.909225 0.872053 0.846686 0.865489 0.83454 0.896718 0.884586 0.84062 0.884254 0.709364 0.865396 0.853202 0.721689 0.852994 0.846884 0.8782 0.853306 0.846839 0.728203 0.847122 0.890787 0.834279 0.878354 0.715779 0.88445 0.828331 0.859327 0.934612 0.828027 0.827975 0.915663 0.853186 0.840448 0.83446 0.865482 0.734543 0.840625 0.903071 0.88461 0.865565 0.940556 0.878024 0.859373 0.921871 0.747028 0.890477 0.740448 0.859343 0.884168 0.734489 0.89668 0.871739 0.909289 0.765569 0.865828 0.903232 0.759602 0.897116 0.871633 0.890569 0.753327 0.865861 0.878083 0.903097 0.759321 0.859255 0.890462 0.846769 0.740469 0.903141 0.846921 0.915778 0.884529 0.746643 0.871712 0.753293 0.852994 0.909507 0.853133 0.765823 0.909624 0.859158 0.871922 0.753242 0.827903 0.759553 0.834412 0.921764 0.822074 0.915863 0.840606 0.822008 0.834556 0.859343 0.834578 0.927936 0.83424 0.859374 0.946856 0.821724 0.846872 0.934151 0.809292 0.822028 0.815756 0.940559 0.809379 0.828066 0.802955 0.953148 0.815764 0.82187 0.959586 0.740532 0.828227 0.815394 0.902979 0.828152 0.81584 0.90934 0.746669 0.83459 0.840737 0.921959 0.846627 0.828285 0.91555 0.840619 0.821664 0.752929 0.921829 0.853124 0.865678 0.765657 0.852951 0.934573 0.853154 0.853244 0.75934 0.847028 0.92803 0.834484 0.847054 0.840739 0.959354 0.77209 0.834532 0.859317 0.840638 0.759409 0.940489 0.865652 0.847106 0.927961 0.846995 0.778042 0.853295 0.971957 0.771932 0.878089 0.83452 0.777939 0.884157 0.77193 0.959281 0.840863 0.877934 0.777881 0.828321 0.784145 0.934603 0.87789 0.784616 0.821707 0.884384 0.784342 0.940465 0.897015 0.790454 0.840397 0.890418 0.777881 0.890498 0.834172 0.765458 0.953118 0.872122 0.828078 0.765726 0.94047 0.884563 0.790422 0.953052 0.865529 0.934212 0.778357 0.890768 0.947083 0.796902 0.946769 0.884461 0.928279 0.790472 0.790714 0.877918 0.959354 0.797081 0.915421 0.903178 0.796647 0.953091 0.796826 0.965852 0.90927 0.802978 0.909326 0.971903 0.797104 0.922117 0.896685 0.96584 0.803126 0.915425 0.803063 0.934505 0.915645 0.959503 0.809224 0.971762 0.947085 0.89682 0.977897 0.809572 0.909589 0.902954 0.87196 0.803177 0.896836 0.934285 0.890804 0.909518 0.809279 0.915745 0.90299 0.772011 0.896957 0.946878 0.902965 0.778113 0.94682 0.953196 0.859186 0.77181 0.865536 0.784189 0.959507 0.790668 0.940755 0.859582 0.947112 0.79707 0.959268 0.871717 0.865685 0.784416 0.953088 0.940384 0.871952 0.965551 0.790731 0.934528 0.872011 0.777938 0.928304 0.859232 0.852886 0.921837 0.853349 0.909507 0.859484 0.971986 0.790476 0.915582 0.865508 0.909355 0.859232 0.784162 0.965529 0.865691 0.878084 0.790824 0.978334 0.878024 0.872083 0.796938 0.884361 0.978274 0.796677 0.865694 0.984289 0.878285 0.984487 0.884219 0.990598 0.809508 0.990819 0.890842 0.996707 0.80313 0.877933 0.984352 1.00962 0.909569 0.996785 0.809509 0.872023 0.99057 0.890717 1.00303 0.80321 1.0033 0.884397 0.984429 0.996858 0.859303 0.815716 0.877903 0.990732 0.822043 0.840693 0.871985 0.996766 0.821698 1.00303 0.834336 1.00935 1.00927 0.871772 0.815709 1.00937 1.01568 0.84673 1.02171 0.815452 1.02173 1.01567 1.02192 0.840836 0.809471 0.88413 0.953069 0.846892 0.821685 0.878333 0.965816 0.890447 0.803169 0.959415 0.884203 0.821803 0.884424 0.8846 0.965811 0.834226 0.87821 0.965825 0.827922 0.878191 0.990765 0.890504 0.98414 0.896893 0.971976 0.72791 0.890454 0.996695 0.728203 0.990843 0.853047 0.728134 0.978029 0.846783 0.740745 0.990638 0.853026 1.00947 0.978323 0.865758 0.728143 0.996725 0.728254 0.872115 0.971934 0.740392 0.746858 0.984473 0.734149 0.853372 0.984361 0.734212 0.990752 0.740687 0.859382 1.0031 0.753136 1.05936 1.05322 0.75915 1.04706 1.00932 1.05298 1.05915 0.740766 0.772061 1.00288 0.740851 1.04671 0.997095 0.734473 0.778304 1.05333 1.01574 0.765623 1.02205 1.04059 1.00333 0.746747 1.04055 1.00309 0.771945 0.740718 1.05306 1.01585 0.765551 1.02818 1.02807 1.04664 1.03416 1.03461 0.752919 0.746965 0.753041 0.75914 0.771713 0.759297 0.765409 0.721787 0.703239 0.734419 0.703344 0.727947 0.740651 1.03439 0.734523 0.734196 0.709276 1.04081 0.740561 1.02809 0.703292 1.02821 1.07199 0.728303 0.740729 1.01559 1.04077 1.05934 0.721658 1.08427 0.740742 1.09058 1.02209 0.721947 0.765793 1.06582 1.02208 1.04698 0.771677 0.740411 1.05917 0.765568 1.03428 0.734589 1.03449 0.759303 1.04068 1.0406 1.04685 1.04704 0.746684 1.05324 0.765637 1.04676 1.05306 0.746785 1.06542 0.778248 0.753252 0.85942 0.771838 1.04071 0.771903 0.771731 1.0468 0.759308 0.852941 0.777991 0.752941 1.02171 0.871712 0.759193 1.01553 0.859276 0.771915 0.777987 0.76555 1.00914 0.865796 0.75919 0.765694 1.03438 0.759545 0.878092 0.778033 1.02176 0.765396 0.890425 0.784326 1.00954 0.897077 0.778205 1.00324 0.740587 0.915837 0.996996 0.790639 0.903161 0.990784 0.74688 0.784436 0.915553 0.790819 0.984245 0.753162 0.7843 0.997121 0.890577 0.777905 0.778187 0.990541 0.90923 0.784495 0.772002 0.921747 0.99665 0.771933 0.871662 0.765633 1.02826 0.771826 0.865862 0.796949 1.01551 0.884431 0.790628 0.759577 0.8782 0.784136 1.04665 0.803024 0.778292 0.878117 1.03448 0.890474 0.746698 1.02173 0.784178 0.746911 1.00335 0.790508 0.89684 0.746681 0.796695 0.752891 0.921834 0.809408 1.00915 0.903191 1.00337 0.815794 0.93432 0.984457 0.809234 0.92823 0.753348 1.02207 0.790566 0.922037 0.747014 1.0096 0.909545 0.784126 0.990509 0.747042 0.915432 0.934307 1.07163 0.747092 0.778156 0.928164 1.07821 0.734481 0.796948 0.94041 1.0717 0.815623 0.946644 1.08434 0.940526 0.802964 0.747004 1.09076 0.971693 1.08439 0.753306 0.797 0.977894 0.765739 1.07825 0.953102 0.77201 0.803067 1.0593 0.978161 0.765866 1.05333 0.809598 0.92831 1.05305 0.81581 0.946855 0.765453 0.821738 0.934365 1.07199 0.778319 0.94084 0.822043 1.0596 0.77822 0.947113 0.834245 0.771885 1.09695 0.95298 0.828081 0.972026 1.09039 0.834211 0.753072 0.959419 1.09664 0.828268 1.00308 1.10336 0.821906 0.98415 0.772001 1.09074 0.828177 0.765862 0.971969 0.809568 1.07807 0.77176 0.828259 0.765713 0.965469 1.06581 0.834135 1.08424 0.990445 0.840854 1.07208 1.0092 1.0783 0.834479 0.88433 1.0408 0.884205 1.03427 0.890493 0.784245 0.896887 1.05308 0.790421 0.89678 1.04684 0.784316 0.890781 1.0343 0.902934 0.790636 1.02834 0.909526 0.915646 0.803173 1.01558 0.909158 0.809162 0.996728 0.934437 0.797086 1.02802 0.946807 0.921937 0.79672 1.00333 0.940383 0.903164 0.784499 1.02203 0.896868 0.79692 1.06585 0.921735 0.790649 