# vtk DataFile Version 3.0
vtk output
ASCII
DATASET UNSTRUCTURED_GRID
POINTS 35531 float
0 0 0
1 0 0
1 1 0
0 1 0
0 0 0
0 0 0
1 0 0
1 1 0
0 1 0
0 0 0
0 0 0
1 0 0
1 1 0
0 1 0
0 0 0
0.567674 0.227395 0
0.434269 0 0
1 0 0
1 0.884787 0
0.741371 0.503468 0
0.720227 0.471166 0
0.567674 0.227395 0
0 0 0
1 0 0
1 1 0
0 1 0
0 0 0
0 0 0
1 0 0
1 1 0
0 1 0
0 0 0
0 0 0
1 0 0
1 1 0
0 1 0
0 0 0
0.426457 0 0
1 0 0
1 0.986551 0
0.656195 0.406716 0
0.426457 0 0
0 0 0
1 0 0
1 1 0
0 1 0
0 0 0
0 0 0
1 0 0
1 1 0
0 1 0
0 0 0
0 0 0
1 0 0
1 1 0
0 1 0
0 0 0
0 0 0
1 0 0
1 1 0
0 1 0
0 0 0
0 0 0
1 0 0
1 1 0
0 1 0
0 0 0
0 0 0
1 0 0
1 1 0
0 1 0
0 0 0
0.489552 0 0
1 0 0
1 1 0
0.947548 1 0
0.662849 0.404539 0
0.489552 0 0
0 0 0
1 0 0
1 1 0
0 1 0
0 0 0
0 0 0
0.0065799 0 0
0 0.00722937 0
0 0 0
0 0 0
0.00301477 0 0
0 0.00311971 0
0 0 0
0 0 0
1 0 0
1 1 0
0 1 0
0 0 0
0 0 0
0.289634 0 0
0.512309 0.18811 0
0.902236 0.527585 0
1 0.615062 0
1 1 0
0 1 0
0 0 0
0 0 0
1 0 0
1 1 0
0 1 0
0 0 0
0 0 0
1 0 0
1 1 0
0 1 0
0 0 0
0 0.0397989 0
0.707409 0.435745 0
1 0.606624 0
1 1 0
0 1 0
0 0.0397989 0
0 0 0
1 0 0
1 1 0
0 1 0
0 0 0
0 0 0
1 0 0
1 1 0
0 1 0
0 0 0
0 0 0
1 0 0
1 1 0
0 1 0
0 0 0
0.142185 0 0
1 0 0
1 1 0
0.808381 1 0
0.694862 0.832955 0
0.142185 0 0
0 0 0
1 0 0
1 1 0
0 1 0
0 0 0
0 0 0
0.0604153 0 0
0.347839 0.184095 0
1 0.613465 0
1 1 0
0 1 0
0 0 0
0 0 0
1 0 0
1 1 0
0 1 0
0 0 0
0 0 0
1 0 0
1 1 0
0 1 0
0 0 0
0 0 0
1 0 0
1 1 0
0 1 0
0 0 0
0 0 0
1 0 0
1 1 0
0 1 0
0 0 0
0 0 0
0.131535 0 0
0.776309 0.376443 0
0.801817 0.391804 0
1 0.515234 0
1 1 0
0 1 0
0 0 0
0 0 0
0.0464185 0 0
0 0.0679531 0
0 0 0
0 0 0
1 0 0
1 1 0
0 1 0
0 0 0
0 0 0
0.226193 0 0
0.394304 0.107033 0
0.747831 0.338226 0
1 0.508096 0
1 1 0
0 1 0
0 0 0
0 0 0
1 0 0
1 1 0
0 1 0
0 0 0
0.138655 0 0
1 0 0
1 1 0
0.899555 1 0
0.601415 0.621637 0
0.572328 0.583687 0
0.138655 0 0
0 0 0
1 0 0
1 1 0
0 1 0
0 0 0
0 0 0
1 0 0
1 1 0
0 1 0
0 0 0
0 0 0
1 0 0
1 1 0
0 1 0
0 0 0
0 0 0
0.164587 0 0
0.227236 0.0435881 0
0.902813 0.53345 0
1 0.605514 0
1 1 0
0 1 0
0 0 0
0 0 0
0.0216766 0 0
0 0.024297 0
0 0 0
0 0 0
1 0 0
1 1 0
0 1 0
0 0 0
0 0 0
1 0 0
1 1 0
0 1 0
0 0 0
0 0 0
1 0 0
1 1 0
0 1 0
0 0 0
0 0 0
1 0 0
1 1 0
0 1 0
0 0 0
0 0 0
0.115619 0 0
0.247602 0.0775443 0
0.802965 0.419684 0
1 0.54486 0
1 1 0
0 1 0
0 0 0
0 0 0
1 0 0
1 1 0
0 1 0
0 0 0
0 0 0
1 0 0
1 1 0
0 1 0
0 0 0
0.241487 0 0
1 0 0
1 1 0
0.835327 1 0
0.510963 0.463276 0
0.241487 0 0
0 0 0
1 0 0
1 1 0
0 1 0
0 0 0
0 0 0
0.0223486 0 0
0.794447 0.394475 0
0.846061 0.421695 0
1 0.505347 0
1 1 0
0 1 0
0 0 0
0 0 0
1 0 0
1 1 0
0 1 0
0 0 0
0 0 0
1 0 0
1 1 0
0 1 0
0 0 0
0 0 0
1 0 0
1 1 0
0 1 0
0 0 0
0 0 0
1 0 0
1 1 0
0 1 0
0 0 0
0 0 0
1 0 0
1 1 0
0 1 0
0 0 0
0 0 0
1 0 0
1 1 0
0 1 0
0 0 0
0 0 0
1 0 0
1 1 0
0 1 0
0 0 0
0.246822 0 0
1 0 0
1 0.967745 0
0.658196 0.538933 0
0.283712 0.0498474 0
0.246822 0 0
0 0 0
1 0 0
1 1 0
0 1 0
0 0 0
0 0 0
1 0 0
1 1 0
0 1 0
0 0 0
0 0 0
1 0 0
1 1 0
0 1 0
0 0 0
0.237948 0 0
1 0 0
1 1 0
0.928384 1 0
0.671239 0.633814 0
0.301498 0.0944347 0
0.237948 0 0
0.117794 0 0
1 0 0
1 1 0
0.780972 1 0
0.639537 0.790627 0
0.117794 0 0
0 0 0
1 0 0
1 1 0
0 1 0
0 0 0
0 0 0
1 0 0
1 1 0
0 1 0
0 0 0
0 0 0
1 0 0
1 1 0
0 1 0
0 0 0
0 0 0
1 0 0
1 1 0
0 1 0
0 0 0
0 0 0
1 0 0
1 1 0
0 1 0
0 0 0
0 0 0
1 0 0
1 1 0
0 1 0
0 0 0
0.20194 0 0
1 0 0
1 1 0
0.87113 1 0
0.614018 0.630341 0
0.384354 0.289093 0
0.379784 0.282052 0
0.20194 0 0
0 0 0
1 0 0
1 1 0
0 1 0
0 0 0
0 0 0
1 0 0
1 1 0
0 1 0
0 0 0
0 0 0
1 0 0
1 1 0
0 1 0
0 0 0
0 0 0
1 0 0
1 1 0
0 1 0
0 0 0
0 0 0
1 0 0
1 1 0
0 1 0
0 0 0
0 0 0
1 0 0
1 1 0
0 1 0
0 0 0
0 0 0
1 0 0
1 1 0
0 1 0
0 0 0
0 0 0
1 0 0
1 1 0
0 1 0
0 0 0
0.251768 0 0
1 0 0
1 1 0
0.879959 1 0
0.569654 0.523978 0
0.251768 0 0
0 0 0
0.02453 0 0
0 0.0233717 0
0 0 0
0 0 0
1 0 0
1 1 0
0 1 0
0 0 0
0 0 0
1 0 0
1 1 0
0 1 0
0 0 0
0 0 0
1 0 0
1 1 0
0 1 0
0 0 0
0 0 0
1 0 0
1 1 0
0 1 0
0 0 0
0 0 0
0.0197381 0 0
0 0.0176185 0
0 0 0
0 0 0
1 0 0
1 1 0
0 1 0
0 0 0
0 0 0
1 0 0
1 1 0
0 1 0
0 0 0
0 0 0
1 0 0
1 1 0
0 1 0
0 0 0
0 0 0
0.0167573 0 0
0 0.0175645 0
0 0 0
0 0 0
0.236423 0 0
1 0.424605 0
1 1 0
0 1 0
0 0 0
0 0 0
1 0 0
1 1 0
0 1 0
0 0 0
0 0 0
0.335525 0 0
1 0.425726 0
1 1 0
0 1 0
0 0 0
0 0 0
0.0147822 0 0
0 0.0124829 0
0 0 0
0 0 0
1 0 0
1 1 0
0 1 0
0 0 0
0 0 0
1 0 0
1 1 0
0 1 0
0 0 0
0 0 0
1 0 0
1 1 0
0 1 0
0 0 0
0 0 0
1 0 0
1 1 0
0 1 0
0 0 0
0 0 0
1 0 0
1 1 0
0 1 0
0 0 0
0 0 0
0.000264867 0 0
0 0.000256503 0
0 0 0
0 0 0
0.20781 0 0
0.386228 0.109566 0
0.748166 0.337853 0
1 0.501513 0
1 1 0
0 1 0
0 0 0
0 0 0
1 0 0
1 1 0
0 1 0
0 0 0
0 0 0
1 0 0
1 1 0
0 1 0
0 0 0
0 0 0
1 0 0
1 1 0
0 1 0
0 0 0
0 0 0
1 0 0
1 1 0
0 1 0
0 0 0
0 0 0
0.0418964 0 0
0 0.0462215 0
0 0 0
0 0 0
1 0 0
1 1 0
0 1 0
0 0 0
0 0 0
0.185671 0 0
0.376354 0.112663 0
0.747896 0.338154 0
1 0.495869 0
1 1 0
0 1 0
0 0 0
0 0 0
1 0 0
1 1 0
0 1 0
0 0 0
0.173836 0 0
1 0 0
1 1 0
0.829967 1 0
0.554129 0.595281 0
0.173836 0 0
0 0 0
0.0397568 0 0
0 0.0415937 0
0 0 0
0 0 0
1 0 0
1 1 0
0 1 0
0 0 0
0 0 0
1 0 0
1 1 0
0 1 0
0 0 0
0 0 0
0.264007 0 0
0.79401 0.296875 0
0.970494 0.39831 0
1 0.415667 0
1 1 0
0 1 0
0 0 0
0 0 0
1 0 0
1 1 0
0 1 0
0 0 0
0 0 0
1 0 0
1 1 0
0 1 0
0 0 0
0 0 0
0.0544106 0 0
0 0.0654363 0
0 0 0
0.249417 0 0
1 0 0
1 1 0
0.8249 1 0
0.682984 0.762105 0
0.500387 0.448198 0
0.249417 0 0
0 0 0
1 0 0
1 1 0
0 1 0
0 0 0
0 0 0
1 0 0
1 1 0
0 1 0
0 0 0
0 0 0
1 0 0
1 1 0
0 1 0
0 0 0
0 0 0
0.0547049 0 0
0 0.0692236 0
0 0 0
0 0 0
1 0 0
1 1 0
0 1 0
0 0 0
0 0 0
1 0 0
1 1 0
0 1 0
0 0 0
0.129921 0 0
1 0 0
1 1 0
0.868704 1 0
0.224015 0.132598 0
0.129921 0 0
0 0 0
1 0 0
1 1 0
0 1 0
0 0 0
0 0 0
1 0 0
1 1 0
0 1 0
0 0 0
0 0 0
1 0 0
1 1 0
0 1 0
0 0 0
0 0 0
1 0 0
1 1 0
0 1 0
0 0 0
0 0 0
1 0 0
1 1 0
0 1 0
0 0 0
0 0 0
1 0 0
1 1 0
0 1 0
0 0 0
0 0 0
1 0 0
1 1 0
0 1 0
0 0 0
0 0 0
1 0 0
1 1 0
0 1 0
0 0 0
0 0 0
1 0 0
1 1 0
0 1 0
0 0 0
0 0 0
0.082218 0 0
0 0.103625 0
0 0 0
0 0 0
1 0 0
1 1 0
0 1 0
0 0 0
0 0 0
1 0 0
1 1 0
0 1 0
0 0 0
0 0 0
1 0 0
1 1 0
0 1 0
0 0 0
0 0 0
1 0 0
1 1 0
0 1 0
0 0 0
0 0 0
0.0708269 0 0
0 0.0770912 0
0 0 0
0.308942 0 0
1 0 0
1 1 0
0.978371 1 0
0.723426 0.634735 0
0.649245 0.523941 0
0.308942 0 0
0 0 0
1 0 0
1 1 0
0 1 0
0 0 0
0 0 0
0.0678402 0 0
0 0.0701379 0
0 0 0
0 0 0
1 0 0
1 1 0
0 1 0
0 0 0
0 0 0
1 0 0
1 1 0
0 1 0
0 0 0
0 0.0178905 0
0.751267 0.456252 0
0.788746 0.478944 0
1 0.611352 0
1 1 0
0 1 0
0 0.0178905 0
0 0 0
1 0 0
1 1 0
0 1 0
0 0 0
0.223324 0 0
1 0 0
1 0.968316 0
0.74232 0.655504 0
0.309298 0.111736 0
0.223324 0 0
0 0 0
0.103977 0 0
0.039219 0.0794975 0
0 0.12502 0
0 0 0
0 0 0
0.0918386 0 0
0.0179276 0.0842453 0
0 0.103643 0
0 0 0
0 0.106522 0
0.692598 0.462026 0
0.695347 0.4635 0
1 0.634156 0
1 1 0
0 1 0
0 0.106522 0
0 0 0
0.444614 0 0
0 0.314085 0
0 0 0
0 0 0
0.104295 0 0
0.0451242 0.0781807 0
0 0.134437 0
0 0 0
0.324338 0 0
1 0 0
1 0.900494 0
0.734228 0.553696 0
0.324338 0 0
0 0.0937852 0
0.18049 0.180402 0
1 0.59773 0
1 1 0
0 1 0
0 0.0937852 0
0 0 0
0.0820508 0 0
0 0.0977286 0
0 0 0
0 0 0
0.369484 0 0
0 0.214871 0
0 0 0
0.197759 0 0
1 0 0
1 0.972964 0
0.732573 0.654315 0
0.197759 0 0
0 0 0
0.0306783 0 0
0.097189 0.0448653 0
0.749646 0.493285 0
0.912155 0.609134 0
1 0.673091 0
1 1 0
0 1 0
0 0 0
0.287218 0 0
1 0 0
1 0.947784 0
0.71428 0.582136 0
0.515304 0.316109 0
0.287218 0 0
0 0.0312986 0
0.752153 0.452245 0
0.788851 0.473574 0
1 0.600743 0
1 1 0
0 1 0
0 0.0312986 0
0.593789 0 0
1 0 0
1 0.280458 0
0.830113 0.165139 0
0.593789 0 0
0.338765 0 0
1 0 0
1 0.926296 0
0.995914 0.920858 0
0.728373 0.553824 0
0.338765 0 0
0 0 0
0.144117 0 0
0.209607 0.044082 0
0.902594 0.530018 0
1 0.599903 0
1 1 0
0 1 0
0 0 0
0 0 0
0.00268003 0 0
0 0.0036376 0
0 0 0
0 0 0
0.32114 0 0
0 0.129492 0
0 0 0
0 0 0
0.129675 0 0
0.197825 0.044412 0
0.902105 0.522359 0
1 0.590368 0
1 1 0
0 1 0
0 0 0
0 0 0
0.00471097 0 0
0 0.00591666 0
0 0 0
0.421982 0 0
1 0 0
1 1 0
0.950493 1 0
0.588964 0.327417 0
0.421982 0 0
0 0.0464227 0
0.752302 0.451575 0
0.788881 0.472053 0
1 0.594641 0
1 1 0
0 1 0
0 0.0464227 0
0 0 0
0.358793 0 0
0 0.193474 0
0 0 0
0 0 0
0.0108592 0 0
0 0.00997244 0
0 0 0
0 0 0
0.317232 0 0
0 0.115869 0
0 0 0
0 0 0
0.00757562 0 0
0.0749832 0.0436368 0
0.751307 0.489569 0
0.908828 0.597367 0
1 0.661138 0
1 1 0
0 1 0
0 0 0
0 0 0
0.00717442 0 0
0 0.00731107 0
0 0 0
0.568666 0.221444 0
0.450788 0 0
1 0 0
1 0.940795 0
0.729002 0.502479 0
0.710528 0.471441 0
0.568666 0.221444 0
0 0.0610803 0
0.752501 0.450675 0
0.788915 0.470287 0
1 0.588304 0
1 1 0
0 1 0
0 0.0610803 0
0 0 0
0.0132961 0 0
0 0.0111916 0
0 0 0
0.624418 0 0
1 0 0
1 0.164337 0
0.624418 0 0
0.442469 0 0
1 0 0
1 1 0
0.970722 1 0
0.651393 0.407861 0
0.442469 0 0
0 0.117936 0
0.249402 0.248812 0
1 0.655645 0
1 1 0
0 1 0
0 0.117936 0
0 0 0
0.00812629 0 0
0 0.0060075 0
0 0 0
0 0 0
0.363672 0 0
0 0.146065 0
0 0 0
0 0.124711 0
0.692679 0.461555 0
0.695523 0.463003 0
1 0.625086 0
1 1 0
0 1 0
0 0.124711 0
0 0 0
0.305396 0 0
0 0.09967 0
0 0 0
0 0 0
0.00976869 0 0
0 0.00780454 0
0 0 0
0.436481 0 0
1 0 0
1 1 0
0.941334 1 0
0.594657 0.324904 0
0.436481 0 0
0 0.140105 0
0.350207 0.340792 0
0.690266 0.543494 0
1 0.735079 0
1 1 0
0 1 0
0 0.140105 0
0 0 0
0.418111 0 0
0 0.254539 0
0 0 0
0 0 0
0.0217745 0 0
0 0.0212174 0
0 0 0
0 0.19617 0
0.273613 0.315686 0
1 0.646672 0
1 1 0
0 1 0
0 0.19617 0
0.364831 0 0
1 0 0
1 1 0
0.922046 1 0
0.655248 0.53264 0
0.364831 0 0
0 0 0
0.265771 0 0
0 0.0752176 0
0 0 0
0 0 0
0.024025 0 0
0 0.0210231 0
0 0 0
0 0.214007 0
0.263746 0.321847 0
1 0.636134 0
1 1 0
0 1 0
0 0.214007 0
0 0 0
0.0231901 0 0
0 0.015501 0
0 0 0
0 0 0
0.243867 0 0
0 0.0783887 0
0 0 0
0.386797 0 0
1 0 0
1 0.976664 0
0.762268 0.607418 0
0.386797 0 0
0 0 0
0.01941 0 0
0 0.0139981 0
0 0 0
0 0.154275 0
0.309748 0.308864 0
0.704493 0.513123 0
1 0.67259 0
1 1 0
0 1 0
0 0.154275 0
0 0 0
0.342181 0 0
0 0.121338 0
0 0 0
0 0 0
0.010176 0 0
0 0.0151573 0
0 0 0
0 0.170871 0
0.364482 0.335113 0
0.717926 0.505396 0
1 0.64669 0
1 1 0
0 1 0
0 0.170871 0
0 0 0
0.432801 0 0
0.237628 0.0953307 0
0 0.203204 0
0 0 0
0.395942 0 0
1 0 0
1 1 0
0.999731 1 0
0.75628 0.606778 0
0.395942 0 0
0 0 0
0.0191509 0 0
0 0.0213233 0
0 0 0
0 0 0
0.4833 0 0
0 0.253849 0
0 0 0
0 0.0604298 0
0.04524 0.0860396 0
[...]
CELL_DATA 6275
FIELD FieldData 3
weight 1 6275 float
 0.921715 0.92167 0.915642 0.915671 0.9281 0.922004 0.928173 0.921845 0.921734 0.91551 0.915409 0.915591 0.928107 0.927951 0.921668 0.921676 0.721932 0.72176 0.940849 1.15958 0.928238 0.940684 1.1719 0.934183 0.934333 0.93432 0.940692 0.940574 1.16574 0.940833 0.93449 0.934166 0.940784 1.15944 0.715844 0.940687 1.16566 0.940425 0.934574 0.947033 0.946809 0.953341 1.17169 0.709358 0.953261 0.94665 0.946719 0.959522 1.16562 0.953268 0.946916 0.934306 0.946712 1.17209 0.946754 1.14707 0.953267 1.15334 0.953209 1.15325 0.959536 0.928199 1.15945 0.953208 1.15913 0.934243 0.946741 0.965838 0.965453 1.15325 0.95931 0.959402 1.14697 0.940507 1.15293 0.971846 1.15923 0.965792 1.15944 0.971956 1.15959 0.959523 0.940462 0.715601 0.965609 0.959615 1.1529 0.953341 0.71557 0.965449 0.953117 0.972003 0.709195 1.16555 0.971696 1.16542 0.715858 0.946693 1.1656 0.946668 0.965434 0.94681 0.72188 1.17187 0.959528 0.953246 0.959315 0.953137 0.721819 0.95298 1.17199 0.946756 0.947029 0.722027 0.953245 0.946922 1.17196 0.952876 1.16556 0.728206 0.946675 0.953253 1.16541 0.959242 0.72804 0.965446 1.16562 0.952953 0.95945 0.959498 0.959151 0.971824 0.965705 0.971809 0.959603 0.971991 0.965554 0.728176 0.959469 0.959323 1.17168 0.959476 0.722105 0.934483 0.96584 0.72176 0.971808 0.96539 1.17171 0.971648 0.934232 0.728144 0.721915 1.18441 0.709412 0.728311 0.928116 1.17799 0.72817 0.702997 0.940707 1.17817 0.934282 1.17804 0.709417 0.934502 1.17174 0.734539 0.709449 1.17809 0.734546 0.92807 1.17824 0.703047 0.734393 0.715626 1.18439 0.734338 0.92821 1.18436 0.734277 0.721653 0.934612 1.19041 0.734386 0.715486 1.18428 0.709333 0.73415 0.928329 1.19677 0.703111 0.7408 1.19047 0.940485 0.709589 0.740426 1.19683 0.740569 0.703146 0.934573 0.740726 1.19702 0.715382 0.740721 1.19057 0.721732 0.940556 0.740653 0.721665 1.18427 0.71586 0.946735 0.74064 1.19058 0.728257 0.746696 0.9405 1.1908 0.746824 0.721657 1.19711 0.953271 0.747 0.747059 0.728334 1.19062 0.746861 0.947022 0.746945 0.740411 1.19687 0.753304 0.753077 1.17816 0.953263 0.734283 1.17205 0.7531 0.946702 0.734145 1.17811 0.74054 1.17819 0.940755 0.740491 0.734259 1.18444 0.947085 0.734398 1.18422 0.947083 0.727996 0.740867 1.17176 0.728118 0.952934 0.728169 0.747 1.17832 0.953091 0.734213 0.740708 1.17834 0.890795 0.746865 0.740708 1.18446 0.734383 0.896848 0.740874 0.734364 0.890787 0.734428 1.17808 0.740424 0.740729 0.896831 1.19079 0.740723 0.903031 1.19062 0.715613 0.746969 0.897116 1.18454 0.746729 0.890462 1.19696 0.746631 0.890804 0.721967 1.19712 0.747019 0.715427 0.884219 0.753229 1.19666 0.896957 0.715689 0.753127 1.19675 0.890447 0.75921 1.19064 0.896893 0.753192 0.759569 0.709592 0.759141 0.909225 1.18429 0.752955 0.715793 0.753303 0.909289 0.721644 0.722035 1.18425 0.753365 0.903141 0.715688 0.903071 0.759316 1.19081 0.72803 0.915663 0.765496 1.19696 0.909589 1.19056 0.759577 0.915421 0.909507 1.19694 0.765751 0.903255 0.903209 1.19697 0.978308 0.909355 0.709548 0.978243 0.98428 0.990718 0.915745 0.984486 0.715503 0.99047 0.978139 0.984323 0.984251 0.90935 0.984416 0.99057 0.715717 0.990496 0.990563 0.996991 0.715466 0.997086 0.884203 1.00333 0.703205 1.00337 0.878191 0.703316 0.996746 0.997049 0.997105 0.709126 1.00337 1.00326 0.884447 1.00325 0.715411 0.978254 0.984194 0.709308 0.978299 0.8846 0.990459 0.98432 0.984294 0.709329 0.977896 0.978246 0.978038 0.890504 0.984602 0.715839 0.990477 0.990607 0.721905 0.98421 0.996857 0.896698 0.996989 0.990676 1.00303 0.728012 0.890454 1.00312 0.721653 0.990809 0.996814 0.721683 0.996889 0.877932 0.996739 1.00328 0.728155 1.00292 1.00336 1.00937 0.734559 1.00962 0.878161 1.00937 0.734323 1.01556 1.02198 1.01569 1.0092 0.728255 1.01538 0.871815 1.0095 0.728323 1.01546 1.02196 0.722123 1.01565 0.884512 1.02192 1.02788 1.02825 1.03441 0.721858 1.02824 0.890685 1.02211 0.728299 1.02797 1.02179 1.03413 0.87815 0.734127 1.02803 1.02799 0.903326 0.734244 1.00924 1.00934 0.89671 1.01566 1.01576 0.734387 1.02171 1.02163 1.00955 1.00943 1.00953 0.909595 1.01587 1.01555 1.02171 0.703122 1.01561 0.902998 1.02824 1.02809 1.03432 0.70921 0.909493 1.03416 1.02832 1.02169 0.709495 1.028 1.02163 0.890444 1.03452 0.702949 1.02822 1.03452 0.715429 0.896942 0.978086 0.715412 0.978049 0.978229 0.984167 0.984541 0.715691 0.972025 0.978124 0.890656 0.971805 0.70292 0.984237 0.984577 0.884425 0.978139 0.709434 0.984219 0.99074 0.996741 0.709464 0.990412 0.902992 0.996962 1.00308 1.00317 0.990749 0.703065 0.990736 0.990681 0.996812 0.996812 0.715708 0.902918 0.715747 0.728086 0.721749 0.997059 0.728078 0.971715 0.722007 0.972034 0.897003 0.978342 0.978111 0.734207 0.978039 0.984425 0.972048 0.965558 0.97175 0.984301 0.978015 0.896666 0.971928 0.978144 0.734422 0.990504 0.984383 0.99072 0.984221 0.996861 0.722091 0.996922 0.922117 0.990456 0.997044 0.990428 0.984554 0.728339 0.996728 0.990554 0.921871 1.00932 1.0094 0.728232 1.00932 0.721851 1.01585 0.928279 1.01565 1.01566 1.00317 1.00289 0.734127 1.0029 1.00956 0.921837 1.0096 0.734483 1.01585 1.02794 1.02197 1.02202 0.934505 0.727902 1.02183 1.03437 1.02796 1.02799 0.734209 1.01571 0.928304 1.01586 1.02165 0.740717 0.915582 1.02183 0.740646 0.915853 1.02809 1.02794 0.921858 1.00316 0.74082 1.00307 0.921674 1.00311 1.00923 0.746706 1.01548 1.00941 1.00929 1.00323 0.996833 0.753265 1.00318 0.927885 1.00925 1.00922 0.746916 1.00925 0.928035 1.02181 1.0217 0.746765 1.01559 0.927991 1.02826 1.028 1.01561 0.940755 0.753072 1.02201 1.01578 1.01573 0.934528 0.746727 1.02808 1.0221 0.740624 1.04059 1.03456 1.0407 1.04688 1.04683 0.740585 1.0404 0.940455 1.03449 1.04073 1.04703 0.746791 1.04708 0.94682 1.04067 1.05291 1.05326 0.74701 1.05931 0.940384 0.753344 1.05325 1.06545 1.05954 0.946697 0.752882 1.05321 1.05337 1.05939 0.946788 1.05956 0.759136 1.06539 1.05949 1.06568 1.04074 1.04059 1.03428 1.04709 1.04682 0.759215 1.04075 0.934172 1.04038 1.04076 1.04682 1.04081 1.04701 0.753311 1.05326 0.934429 1.05932 1.05303 0.759317 1.05926 1.06567 1.05956 1.05313 1.04674 0.765653 0.765776 0.771674 1.05336 1.05915 1.06552 0.934323 1.05297 0.759295 1.05925 1.06572 1.06557 1.07169 0.759422 0.940598 1.07797 1.0719 1.07796 0.765469 0.940436 1.07185 0.759218 1.07181 1.07163 0.915466 1.07835 1.07815 1.07808 0.765544 1.08449 0.915687 1.08447 1.08418 0.765863 1.09051 0.909139 1.09047 1.0905 0.772005 0.92197 1.08446 1.09054 0.921921 1.08435 0.740483 1.09044 1.0968 1.09696 0.915779 1.06581 0.740773 1.07189 1.06586 1.07164 1.07187 1.07796 0.740782 0.909227 1.07191 1.0779 1.06587 0.74664 1.08435 1.07188 0.902942 1.07796 0.752928 1.08415 1.07826 1.08442 1.09068 0.747101 0.921643 1.08439 1.09058 1.09067 1.07821 0.753083 1.08414 1.09706 0.915469 1.09689 1.0844 0.746789 1.03449 1.04067 1.03451 1.04693 1.04053 0.740586 1.04703 0.909185 1.04072 1.03418 0.740575 1.0344 1.04669 1.04065 1.04087 0.915761 0.928294 1.05315 0.746649 1.05314 1.05328 0.752881 0.928154 1.05917 0.753065 1.05942 1.05927 0.927946 0.753297 1.05323 1.04663 1.04695 0.759504 1.0595 0.934196 1.0594 0.759269 1.05335 0.934612 1.02819 1.03434 0.76543 1.03413 1.03413 0.940516 1.04688 0.759338 1.04044 1.04705 1.04048 0.934558 1.03433 0.765799 1.02799 1.03458 1.0406 0.928155 1.04058 0.771856 1.05301 0.921868 1.05333 0.771712 1.05288 1.05923 0.759569 1.05955 0.922069 1.05957 0.759595 1.04667 1.04697 1.04686 1.05933 1.05311 0.771817 0.934348 1.05333 1.06582 1.0658 1.06548 0.765844 1.07209 1.0782 0.928333 1.07206 1.07163 1.078 0.765618 1.06559 1.06553 1.06567 1.07207 1.07178 0.771986 1.07827 0.934573 1.07196 1.07806 1.09058 0.765471 1.08436 1.09044 1.08458 1.09039 0.752893 1.07798 1.08414 0.940473 1.0908 1.08461 0.759498 1.0906 1.08448 1.072 1.06543 0.753293 0.934296 1.06559 1.07796 1.07182 0.753253 1.06577 0.759199 0.940683 1.06547 0.765641 0.759598 1.05933 0.940686 0.765784 1.07166 1.07188 0.946706 0.765404 1.07187 0.759184 0.946819 1.06539 1.078 0.759212 1.08425 1.07826 1.09074 0.940534 0.759349 1.08423 0.947004 0.765788 1.07824 0.772112 1.07803 0.765396 0.953242 0.771865 1.07822 0.76543 0.946653 0.771928 0.771845 0.778037 0.953349 0.778217 0.947089 0.777948 1.07791 0.77172 1.08413 0.721998 1.08423 1.0904 0.778237 0.971664 0.740515 0.965765 0.778035 0.965511 0.971844 0.972014 0.772018 0.734539 0.978321 0.784181 0.978118 0.965808 0.965771 0.784239 0.734371 0.97169 0.972051 0.777934 0.978071 0.978354 0.98433 0.74075 0.984175 0.784204 0.98446 0.99066 0.996692 0.728231 0.990771 0.978203 0.765731 0.728282 0.765668 0.984621 0.990828 0.990813 0.76563 0.728316 0.77177 0.990389 0.73443 0.984601 0.772036 0.965779 0.734167 0.771866 0.740379 0.765489 0.959517 0.771838 0.740457 0.772038 0.965436 0.772036 0.753136 0.778239 0.971974 0.778058 0.971892 0.746993 0.778165 0.784386 0.778077 0.965675 0.753375 0.78446 0.959204 0.777886 0.746832 0.790807 0.78432 0.79082 0.953052 0.790695 0.784261 0.753031 0.790449 0.784459 0.759466 0.959427 0.796979 0.790744 0.759458 0.797016 0.784217 0.959549 0.784592 0.74694 0.784262 0.790586 0.965598 0.747061 0.790777 0.965756 0.790814 0.75297 0.977911 0.790808 0.759433 0.796775 0.972024 0.790676 0.75923 0.978215 0.796702 0.752889 0.984262 0.79084 0.978126 0.765856 0.796885 0.796673 0.984168 0.765624 0.803165 0.984247 0.796693 0.778352 0.802879 0.971835 0.77164 0.971772 0.796956 0.778322 0.802985 0.971898 0.771895 0.802957 0.977935 0.809334 0.772076 0.803263 0.978089 1.00304 0.765393 0.996645 0.803042 0.997017 1.00306 0.809178 0.765865 1.00333 1.00925 0.809537 0.996906 0.765667 0.815855 0.997109 0.772053 0.81564 1.00331 0.815771 0.778255 0.797004 0.778368 1.00316 0.790644 1.01574 1.01574 0.777988 0.796829 1.02195 1.02211 0.803032 1.0221 0.747026 1.02803 0.803111 1.01586 0.803045 0.746939 1.00933 0.80324 1.00957 0.753359 0.796631 1.0154 0.803013 1.00924 0.747049 0.809186 0.809219 1.02207 0.75932 0.809408 0.809472 1.01555 0.809217 0.753014 1.02168 0.815867 0.990431 0.759546 0.809516 0.815833 0.990536 0.753265 0.815535 0.996981 0.821936 0.746808 0.990751 0.821683 0.746816 1.0033 0.815705 0.759145 0.997091 0.815722 0.821811 1.00295 0.759255 0.822058 0.821679 0.996996 0.77169 0.984322 0.75329 0.771907 0.984245 0.759188 0.77792 0.990541 0.784475 0.765429 0.990784 0.777982 0.772081 0.778166 0.997121 0.77791 0.765558 0.99665 0.77163 0.78421 0.772003 1.00923 0.778222 0.777984 0.78436 1.00324 0.784418 0.772009 1.00914 0.784432 0.77822 0.790412 1.01557 0.771743 0.796776 1.01553 0.790568 0.765729 1.00337 0.796784 0.772119 0.796998 1.00954 0.765794 0.79043 1.00335 0.790616 0.778252 1.01551 0.784516 0.777895 0.803106 1.0096 0.709471 0.796898 1.00915 0.797097 0.703151 0.771671 0.953243 0.778229 0.778175 0.953043 0.784488 0.721791 0.777945 0.715616 0.784246 0.953016 0.722082 0.777882 0.778288 0.965592 0.715682 0.784587 0.78422 0.784429 0.959268 0.709352 0.79052 0.709201 0.790584 0.95962 0.703258 0.796941 0.959255 0.79084 0.715778 0.790672 0.946719 0.802998 0.721748 0.796784 0.71563 0.803124 0.953362 0.796625 0.790638 0.734409 0.947101 0.796921 0.728203 0.796724 0.959233 0.797119 0.72791 0.953346 0.734336 0.803344 0.802908 0.740858 0.809285 0.965426 0.734333 0.803317 0.965571 0.740663 0.803165 0.728134 0.97833 0.80303 0.721826 0.809236 0.721992 0.978021 0.815406 0.809571 0.728254 0.971765 0.815791 0.809499 0.734212 0.978175 0.809622 0.734473 0.740851 0.809224 0.96578 0.80314 0.709349 0.815559 0.965514 0.80915 0.959197 0.815875 0.702941 0.821637 0.971965 0.715875 0.815843 0.972088 0.709213 0.821651 0.828251 0.978329 0.715605 0.82824 0.709283 0.821805 0.703285 0.821801 0.709156 0.971871 0.827968 0.828012 0.703287 0.82806 0.709219 0.947007 0.834269 0.80331 0.709167 0.809437 0.809562 0.715438 0.946882 0.815673 0.715592 0.81576 0.721976 0.940465 0.822089 0.722075 0.815814 0.728008 0.809189 0.953278 0.728246 0.815535 0.72199 0.815611 0.952978 0.821719 0.727876 0.953038 0.821843 0.734419 0.821989 0.740718 0.822122 0.940646 0.740651 0.821691 0.734196 0.828353 0.940381 0.834386 0.721861 0.828287 0.72796 0.93449 0.834279 0.834281 0.727929 0.947056 0.828309 0.73452 0.827925 0.940438 0.734149 0.828284 0.734539 0.834416 0.947091 0.834374 0.746846 0.834209 0.965759 0.709151 0.752982 0.709227 0.746858 0.703332 0.959447 0.709287 0.759372 0.95939 0.703266 0.759423 0.702966 0.752985 0.721986 0.746821 0.971871 0.715631 0.740687 0.715832 0.709355 0.740766 0.965504 0.709409 0.746747 0.959526 0.709449 0.75915 0.953173 0.715572 0.753136 0.721829 0.753364 0.71546 0.953178 0.721894 0.759303 0.722094 0.946894 0.727893 0.77197 0.734561 0.965441 0.740868 0.765806 0.734611 0.959412 0.72181 0.765855 0.727936 0.959319 0.728272 0.771835 0.728061 0.990768 0.778155 0.7344 0.734325 0.984457 0.777941 0.740522 0.765793 0.740658 0.984135 0.734156 0.771677 0.98461 0.702939 0.765637 0.709463 0.990509 0.709325 0.765568 0.990526 0.715795 0.778248 0.721837 0.996923 0.721875 0.777999 0.71587 0.984528 0.722026 0.778033 0.978057 0.771838 0.703049 0.703224 0.74668 0.990501 0.709364 0.715851 0.746698 0.722029 0.759308 0.990642 0.75321 0.721677 0.727882 0.752941 0.984447 0.734199 0.753103 0.72814 0.996728 0.740561 0.740771 1.00297 0.740621 0.747042 0.734178 0.997042 0.740729 0.734372 1.00922 0.752891 0.728299 1.00333 0.746911 0.728203 0.734489 0.746681 1.00918 0.740554 0.753348 0.734168 1.00334 0.76555 0.740448 0.765633 0.7471 0.996968 0.75919 0.740441 0.740697 0.771731 0.996922 0.747002 0.753249 1.00926 0.778205 0.75291 0.753221 0.771915 0.746736 0.777905 1.00326 0.746686 0.759558 0.746725 0.759545 0.753278 1.00298 0.765739 0.753038 0.759601 0.759172 0.759618 0.978209 0.771933 0.759244 0.771774 0.971717 0.771885 0.765517 0.771878 0.765866 0.7658 0.978111 0.759315 0.77201 0.765853 0.759388 0.772085 0.984468 0.76544 0.790874 0.772073 0.984197 0.784255 0.771924 0.971646 0.746708 0.78449 0.971752 0.752924 0.79692 0.746764 0.96539 0.753075 0.797085 0.759226 0.965638 0.759343 0.97815 0.790726 0.747053 0.978085 0.747028 0.796685 0.753327 0.759602 0.790518 0.971942 0.759321 0.790489 0.753293 0.978007 0.7655 0.78431 0.765542 0.990577 0.784477 0.765811 0.990727 0.790695 0.771909 0.771674 1.00295 0.777881 0.796682 0.996771 0.778211 0.796851 0.99681 0.803001 0.765569 0.984354 0.802927 0.765458 0.984515 0.990634 0.771932 0.984433 0.803038 0.777939 0.80926 0.77193 0.996958 0.777881 0.990862 0.815395 0.997102 0.809496 0.990454 1.02792 1.03439 0.715779 1.02791 0.721689 0.803296 1.03461 0.709463 0.803278 1.03451 0.709534 1.04042 0.809215 1.02816 0.715573 0.815726 1.02194 0.715524 0.80925 1.02799 0.728218 0.815579 1.03432 0.715839 0.784257 0.728002 1.03423 0.790565 0.721866 0.728108 0.784208 1.02789 0.740469 0.797009 1.04087 0.734543 1.04691 0.740757 1.04667 0.790464 1.04038 0.734325 0.797116 1.04672 0.727927 0.784156 1.05302 0.721655 0.79044 0.728029 1.05301 0.784241 1.05322 0.784163 0.740644 1.0405 0.734165 0.796839 0.740532 0.796655 1.04706 0.740772 0.796955 0.702902 1.04059 0.790497 0.709417 1.05298 0.703065 0.803149 1.04671 0.709407 0.803218 1.02809 0.703239 0.721818 1.02171 0.715494 1.02176 0.809623 0.715673 1.03452 0.803034 0.721884 1.02826 0.709371 0.809352 1.03438 0.703344 0.815849 1.03448 0.809235 0.709276 1.02173 0.815438 0.803336 0.703292 1.01558 0.802976 1.02207 0.721787 1.02834 0.715409 0.815485 0.715789 1.02203 0.728308 1.02802 0.809424 0.734292 1.04664 0.809568 0.734152 1.04055 0.821744 0.728143 1.04071 0.815566 0.734149 0.815675 1.04068 0.740745 1.05306 0.834414 0.740793 1.0468 1.04665 0.727947 0.828007 1.03427 0.728303 0.82801 1.0408 0.721658 0.834602 1.0343 1.0468 0.721947 0.82208 1.04684 1.04063 0.740392 0.821786 1.04039 0.734523 0.821893 1.05913 0.828253 0.734589 1.05936 0.827908 1.05921 0.746859 0.828237 1.07211 0.746643 1.06562 0.840795 0.746669 1.06568 0.840522 0.753242 1.05915 0.752929 0.853098 1.05917 0.747065 1.05333 0.846897 0.746676 1.06553 0.846726 0.753021 1.07199 0.834518 0.753011 1.05934 0.840761 1.06542 0.759167 0.834433 1.06582 0.846962 0.759409 1.08425 0.759242 0.84068 0.765823 1.07791 0.846958 0.765726 0.840563 1.07194 0.759553 0.821923 1.08417 0.765657 0.821834 0.75934 1.09043 0.822015 0.772011 1.07792 0.778113 0.828068 1.08427 0.77181 0.828246 1.07163 0.765568 1.09058 0.81542 1.07825 0.772061 0.821995 1.07821 0.765551 0.777938 1.05333 0.822009 0.778042 1.05305 0.828256 0.77209 1.0593 0.828331 0.778304 1.0596 0.827975 0.746965 1.06585 0.834217 0.752905 1.0529 0.840444 1.05308 0.834298 0.753041 0.834202 1.05334 0.846627 0.746684 1.05953 0.846698 0.752919 1.05947 0.840657 0.759297 1.0717 0.846699 0.75914 1.06581 0.840659 0.746785 1.07199 0.83454 0.740587 1.07208 0.834279 0.74688 1.07807 0.846686 0.753162 1.07194 0.847122 0.753252 1.06553 0.84062 0.759193 0.840448 1.06556 0.759577 0.78451 1.06561 0.771713 0.784134 1.0783 0.771945 0.790679 1.07197 0.765623 0.79705 1.07797 0.796638 0.765409 0.790744 1.02169 0.778156 0.790756 1.0157 0.777991 0.784145 1.01577 0.771903 0.784326 1.02212 0.790768 0.765694 0.796869 0.796871 0.771826 0.790639 0.953266 0.803317 0.765396 0.802905 0.802993 0.772002 0.95331 0.815498 0.809166 0.777987 0.959625 0.815437 0.81558 0.965861 0.809212 0.778187 0.809422 0.802992 0.778208 0.95297 0.802955 0.77801 0.809292 0.959547 0.809379 0.784587 0.7843 0.778147 0.784436 0.784286 0.965728 0.784495 0.790626 0.790819 0.790628 0.790395 0.959592 0.784136 0.778057 0.778292 0.959233 0.784504 0.778319 0.790823 0.77819 0.784167 0.965622 0.784344 0.784446 0.959381 0.790511 0.784136 0.796949 0.790506 0.797023 0.965593 0.803163 0.79054 0.796928 0.946807 0.809292 0.809296 0.790651 0.95298 0.803304 0.796948 0.952897 0.809615 0.796809 0.959232 0.803351 0.803222 0.953092 0.809208 0.797118 0.797108 0.802955 0.809444 0.959184 0.803257 0.796858 0.953102 0.796971 0.803351 0.796781 0.953148 0.809592 0.959281 0.803108 0.803089 0.959419 0.80955 0.809143 0.784418 0.965811 0.7782 0.959354 0.784145 0.790649 0.822016 0.96582 0.822008 0.790472 0.822074 0.965867 0.784616 0.828027 0.784342 0.971969 0.790422 0.827903 0.790714 0.815756 0.971675 1.02793 0.797081 0.81584 0.797104 1.02172 0.978174 0.82187 1.01566 0.790454 0.971814 0.821724 0.796647 0.828227 0.796826 1.01538 0.828152 0.965469 0.802978 0.803141 0.834556 1.00955 0.96553 0.809318 0.83446 0.809503 1.0093 0.840625 0.809224 0.971693 1.01559 0.840737 0.803126 0.978344 0.803177 0.83424 0.803063 1.02183 0.972026 0.846769 0.809572 1.0346 0.846627 0.809279 0.978161 0.846921 0.815496 1.02834 0.965695 0.809367 1.02798 0.834578 0.971718 0.809319 0.840619 0.971928 0.821773 1.03448 0.971633 0.815531 0.834484 0.978102 1.04046 0.840739 0.821974 1.03424 0.971772 0.821676 0.847028 0.815505 1.04046 0.815439 0.97211 0.840638 1.02193 0.815624 0.815661 0.977977 1.02791 0.815537 0.821659 1.02821 0.978181 0.828292 0.822111 1.03415 0.822012 0.834275 1.03449 0.978294 0.827887 0.821816 0.834449 1.00942 0.828337 0.984506 0.834142 0.821668 0.977934 0.828116 1.00297 0.984348 0.815555 1.01568 0.840817 0.98458 0.815815 1.01552 0.990538 0.840788 0.815679 1.00922 0.984515 0.821684 1.00299 0.840838 0.828303 0.99047 0.997034 0.828164 0.821695 0.997112 1.00313 0.834619 0.834241 0.990504 1.00959 0.834532 0.984243 0.828109 1.00926 0.834559 0.834342 1.00316 0.990384 0.840537 0.840485 1.00293 1.00934 0.997041 0.84044 0.840711 1.02185 0.996706 0.83418 0.834418 1.02207 0.984266 0.815594 0.827883 0.977915 1.01572 0.821724 0.828358 0.977918 1.02791 0.815457 1.03431 0.834236 0.821852 0.990527 1.02827 0.840465 0.828116 1.03446 0.990668 0.828257 0.834207 1.01572 0.827977 0.984512 0.84079 1.02206 0.822076 0.703316 0.984589 1.0156 0.815501 0.703159 1.02196 0.82198 0.984255 0.709326 1.02837 0.815537 0.990445 0.70938 1.02794 0.828116 0.715866 0.98415 1.02209 0.715564 0.828354 0.71587 0.990739 1.04687 0.703106 0.990499 1.04693 0.703001 0.822043 1.05915 0.82821 0.996703 0.709466 0.834453 0.71571 1.05321 0.996653 0.715585 0.834462 1.05301 0.709177 1.04688 0.722051 0.990418 0.840836 1.0406 0.728255 0.84706 1.04044 0.728221 0.840382 1.04706 1.00307 0.722067 0.840681 1.0467 0.72193 0.996769 0.834367 1.05916 0.740742 1.0094 0.834606 0.734481 1.06567 0.840408 0.734429 1.05942 1.00322 0.721666 0.846703 1.07188 0.727908 0.997095 0.847105 0.722018 1.07179 0.840783 0.996958 0.