# vtk DataFile Version 3.0
vtk output
ASCII
DATASET UNSTRUCTURED_GRID
POINTS 26939 float
0 0 0
1 0 0
1 1 0
0 1 0
0 0 0
0 0 0
1 0 0
1 1 0
0 1 0
0 0 0
0 0 0
1 0 0
1 1 0
0 1 0
0 0 0
0 0 0
1 0 0
1 1 0
0 1 0
0 0 0
0 0 0
1 0 0
1 1 0
0 1 0
0 0 0
0 0 0
1 0 0
1 1 0
0 1 0
0 0 0
0 0 0
1 0 0
1 1 0
0 1 0
0 0 0
0 0 0
1 0 0
1 1 0
0 1 0
0 0 0
0 0 0
1 0 0
1 1 0
0 1 0
0 0 0
0 0 0
1 0 0
1 1 0
0 1 0
0 0 0
0 0 0
1 0 0
1 1 0
0 1 0
0 0 0
0 0 0
1 0 0
1 1 0
0 1 0
0 0 0
0 0 0
1 0 0
1 1 0
0 1 0
0 0 0
0 0 0
1 0 0
1 1 0
0 1 0
0 0 0
0 0 0
1 0 0
1 1 0
0 1 0
0 0 0
0 0 0
1 0 0
1 1 0
0 1 0
0 0 0
0 0 0
1 0 0
1 1 0
0 1 0
0 0 0
0 0 0
1 0 0
1 1 0
0 1 0
0 0 0
0 0 0
1 0 0
1 1 0
0 1 0
0 0 0
0 0 0
1 0 0
1 1 0
0 1 0
0 0 0
0 0 0
1 0 0
1 1 0
0 1 0
0 0 0
0 0 0
1 0 0
1 1 0
0 1 0
0 0 0
0 0 0
1 0 0
1 1 0
0 1 0
0 0 0
0 0 0
1 0 0
1 1 0
0 1 0
0 0 0
0 0 0
1 0 0
1 1 0
0 1 0
0 0 0
0 0 0
1 0 0
1 1 0
0 1 0
0 0 0
0 0 0
1 0 0
1 1 0
0 1 0
0 0 0
0 0 0
1 0 0
1 1 0
0 1 0
0 0 0
0 0 0
1 0 0
1 1 0
0 1 0
0 0 0
0 0 0
1 0 0
1 1 0
0 1 0
0 0 0
0 0 0
1 0 0
1 1 0
0 1 0
0 0 0
0 0 0
1 0 0
1 1 0
0 1 0
0 0 0
0 0 0
1 0 0
1 1 0
0 1 0
0 0 0
0 0.22185 0
0.88042 0.796736 0
1 0.878121 0
1 1 0
0 1 0
0 0.22185 0
0 0 0
0.291988 0 0
0.578349 0.368131 0
1 0.936867 0
1 1 0
0 1 0
0 0 0
0 0 0
1 0 0
1 1 0
0 1 0
0 0 0
0 0 0
1 0 0
1 1 0
0 1 0
0 0 0
0 0 0
1 0 0
1 1 0
0 1 0
0 0 0
0 0 0
1 0 0
1 1 0
0 1 0
0 0 0
0 0 0
0.275396 0 0
0.564764 0.368434 0
1 0.95032 0
1 1 0
0 1 0
0 0 0
0 0 0
1 0 0
1 1 0
0 1 0
0 0 0
0 0 0
1 0 0
1 1 0
0 1 0
0 0 0
0 0 0
1 0 0
1 1 0
0 1 0
0 0 0
0 0.190107 0
0.726477 0.71207 0
0.919033 0.857373 0
1 0.920968 0
1 1 0
0 1 0
0 0.190107 0
0 0 0
1 0 0
1 1 0
0 1 0
0 0 0
0 0 0
1 0 0
1 1 0
0 1 0
0 0 0
0 0 0
1 0 0
1 1 0
0 1 0
0 0 0
0 0 0
1 0 0
1 1 0
0 1 0
0 0 0
0 0 0
1 0 0
1 1 0
0 1 0
0 0 0
0 0 0
1 0 0
1 1 0
0 1 0
0 0 0
0 0.166427 0
0.898708 0.737838 0
1 0.806914 0
1 1 0
0 1 0
0 0.166427 0
0 0 0
1 0 0
1 1 0
0 1 0
0 0 0
0 0 0
1 0 0
1 1 0
0 1 0
0 0 0
0 0 0
1 0 0
1 1 0
0 1 0
0 0 0
0 0 0
1 0 0
1 1 0
0 1 0
0 0 0
0 0 0
1 0 0
1 1 0
0 1 0
0 0 0
0 0.115161 0
0.117853 0.176515 0
1 0.661235 0
1 1 0
0 1 0
0 0.115161 0
0 0 0
1 0 0
1 1 0
0 1 0
0 0 0
0 0 0
1 0 0
1 1 0
0 1 0
0 0 0
0 0 0
1 0 0
1 1 0
0 1 0
0 0 0
0 0.161993 0
0.153489 0.245936 0
1 0.737266 0
1 1 0
0 1 0
0 0.161993 0
0 0 0
1 0 0
1 1 0
0 1 0
0 0 0
0 0 0
1 0 0
1 1 0
0 1 0
0 0 0
0 0 0
1 0 0
1 1 0
0 1 0
0 0 0
0 0 0
1 0 0
1 1 0
0 1 0
0 0 0
0 0 0
1 0 0
1 1 0
0 1 0
0 0 0
0 0 0
1 0 0
1 1 0
0 1 0
0 0 0
0 0 0
1 0 0
1 1 0
0 1 0
0 0 0
0 0.192824 0
0.69685 0.642262 0
1 0.846382 0
1 1 0
0 1 0
0 0.192824 0
0 0 0
1 0 0
1 1 0
0 1 0
0 0 0
0 0 0
1 0 0
1 1 0
0 1 0
0 0 0
0 0 0
1 0 0
1 1 0
0 1 0
0 0 0
0 0 0
1 0 0
1 1 0
0 1 0
0 0 0
0 0 0
1 0 0
1 1 0
0 1 0
0 0 0
0 0.122174 0
0.842656 0.912228 0
0.929999 1 0
0 1 0
0 0.122174 0
0 0 0
1 0 0
1 1 0
0 1 0
0 0 0
0 0 0
1 0 0
1 1 0
0 1 0
0 0 0
0 0 0
1 0 0
1 1 0
0 1 0
0 0 0
0 0 0
1 0 0
1 1 0
0 1 0
0 0 0
0 0 0
0.0981952 0 0
1 0.998073 0
1 1 0
0 1 0
0 0 0
0 0 0
1 0 0
1 1 0
0 1 0
0 0 0
0 0 0
1 0 0
1 1 0
0 1 0
0 0 0
0 0 0
1 0 0
1 1 0
0 1 0
0 0 0
0 0 0
1 0 0
1 1 0
0 1 0
0 0 0
0 0.0541895 0
0.920396 0.975418 0
0.943827 1 0
0 1 0
0 0.0541895 0
0 0 0
1 0 0
1 1 0
0 1 0
0 0 0
0 0 0
1 0 0
1 1 0
0 1 0
0 0 0
0 0 0
1 0 0
1 1 0
0 1 0
0 0 0
0 0 0
1 0 0
1 1 0
0 1 0
0 0 0
0 0 0
1 0 0
1 1 0
0 1 0
0 0 0
0 0 0
1 0 0
1 1 0
0 1 0
0 0 0
0 0.220545 0
0.839432 1 0
0 1 0
0 0.220545 0
0 0 0
1 0 0
1 1 0
0 1 0
0 0 0
0 0 0
1 0 0
1 1 0
0 1 0
0 0 0
0 0 0
1 0 0
1 1 0
0 1 0
0 0 0
0 0 0
1 0 0
1 1 0
0 1 0
0 0 0
0 0.147364 0
0.850357 0.900943 0
0.954694 1 0
0 1 0
0 0.147364 0
0 0 0
1 0 0
1 1 0
0 1 0
0 0 0
0 0 0
1 0 0
1 1 0
0 1 0
0 0 0
0 0 0
1 0 0
1 1 0
0 1 0
0 0 0
0 0 0
1 0 0
1 1 0
0 1 0
0 0 0
0 0.156131 0
0.84317 0.911475 0
0.93527 1 0
0 1 0
0 0.156131 0
0 0 0
1 0 0
1 1 0
0 1 0
0 0 0
0 0 0
1 0 0
1 1 0
0 1 0
0 0 0
0 0 0
1 0 0
1 1 0
0 1 0
0 0 0
0 0 0
1 0 0
1 1 0
0 1 0
0 0 0
0 0 0
0.255478 0 0
0.563969 0.368451 0
1 0.914527 0
1 1 0
0 1 0
0 0 0
0 0 0
1 0 0
1 1 0
0 1 0
0 0 0
0 0 0
1 0 0
1 1 0
0 1 0
0 0 0
0 0 0
1 0 0
1 1 0
0 1 0
0 0 0
0 0.1973 0
0.717652 0.630936 0
1 0.808961 0
1 1 0
0 1 0
0 0.1973 0
0 0 0
1 0 0
1 1 0
0 1 0
0 0 0
0 0 0
1 0 0
1 1 0
0 1 0
0 0 0
0 0.205517 0
0.742501 0.696125 0
0.92182 0.820574 0
1 0.87712 0
1 1 0
0 1 0
0 0.205517 0
0 0 0
1 0 0
1 1 0
0 1 0
0 0 0
0 0 0
1 0 0
1 1 0
0 1 0
0 0 0
0 0 0
1 0 0
1 1 0
0 1 0
0 0 0
0 0 0
0.0797389 0 0
1 0.967569 0
1 1 0
0 1 0
0 0 0
0 0 0
1 0 0
1 1 0
0 1 0
0 0 0
0 0 0
1 0 0
1 1 0
0 1 0
0 0 0
0 0 0
1 0 0
1 1 0
0 1 0
0 0 0
0 0 0
0.0250061 0 0
0.611055 0.57372 0
0.89067 0.857063 0
1 0.972083 0
1 1 0
0 1 0
0 0 0
0 0 0
1 0 0
1 1 0
0 1 0
0 0 0
0 0 0
1 0 0
1 1 0
0 1 0
0 0 0
0 0 0
0.242158 0 0
0.572832 0.368254 0
1 0.865839 0
1 1 0
0 1 0
0 0 0
0 0 0
1 0 0
1 1 0
0 1 0
0 0 0
0 0 0
1 0 0
1 1 0
0 1 0
0 0 0
0 0 0
1 0 0
1 1 0
0 1 0
0 0 0
0 0 0
1 0 0
1 1 0
0 1 0
0 0 0
0 0 0
0.325391 0 0
0.664154 0.234381 0
0.701319 0.260636 0
1 0.477348 0
1 1 0
0 1 0
0 0 0
0 0 0
1 0 0
1 1 0
0 1 0
0 0 0
0 0 0
0.338671 0 0
0.793727 0.304793 0
1 0.446781 0
1 1 0
0 1 0
0 0 0
0 0 0
1 0 0
1 1 0
0 1 0
0 0 0
0 0 0
1 0 0
1 1 0
0 1 0
0 0 0
0 0 0
0.208359 0 0
1 0.51959 0
1 1 0
0 1 0
0 0 0
0 0 0
0.358398 0 0
0.374707 0.0112798 0
1 0.458395 0
1 1 0
0 1 0
0 0 0
0 0 0
1 0 0
1 1 0
0 1 0
0 0 0
0 0 0
1 0 0
1 1 0
0 1 0
0 0 0
0 0 0
0.358264 0 0
0.850371 0.319263 0
0.930961 0.372847 0
1 0.420078 0
1 1 0
0 1 0
0 0 0
0 0 0
1 0 0
1 1 0
0 1 0
0 0 0
0 0 0
1 0 0
1 1 0
0 1 0
0 0 0
0 0 0
1 0 0
1 1 0
0 1 0
0 0 0
0 0 0
0.0942356 0 0
0 0.05611 0
0 0 0
0 0 0
0.187009 0 0
1 0.516207 0
1 1 0
0 1 0
0 0 0
0 0 0
0.152437 0 0
0.880403 0.520104 0
0.959559 0.578902 0
1 0.609851 0
1 1 0
0 1 0
0 0 0
0 0 0
0.146013 0 0
0.768751 0.384429 0
1 0.538973 0
1 1 0
0 1 0
0 0 0
0.919078 0 0
1 0 0
1 0.0380832 0
0.919078 0 0
0 0 0
0.0687572 0 0
0.898069 0.546092 0
1 0.61498 0
1 1 0
0 1 0
0 0 0
0.644152 0 0
1 0 0
1 0.217514 0
0.644152 0 0
0 0 0
0.0792449 0 0
0.261524 0.0979131 0
1 0.516157 0
1 1 0
0 1 0
0 0 0
0 0 0
0.208219 0 0
0.365379 0.111804 0
0.952021 0.540629 0
1 0.576807 0
1 1 0
0 1 0
0 0 0
0 0 0
0.0769776 0 0
0 0.0419922 0
0 0 0
0 0 0
0.234464 0 0
1 0.472742 0
1 1 0
0 1 0
0 0 0
0 0 0
0.268235 0 0
0.658111 0.236565 0
0.698993 0.261893 0
1 0.453463 0
1 1 0
0 1 0
0 0 0
0 0 0
1 0 0
1 1 0
0.799576 1 0
0 0.0999669 0
0 0 0
0 0 0
0.105171 0 0
0.767018 0.385698 0
1 0.532878 0
1 1 0
0 1 0
0 0 0
0 0 0
0.302217 0 0
0 0.137613 0
0 0 0
0 0 0
0.113251 0 0
1 0.497996 0
1 1 0
0 1 0
0 0 0
0 0 0
0.318285 0 0
0 0.155947 0
0 0 0
0 0 0
1 0 0
1 1 0
0 1 0
0 0 0
0 0 0
1 0 0
1 1 0
0 1 0
0 0 0
0.0613762 0 0
1 0 0
1 1 0
0.932164 1 0
0.333278 0.319441 0
0.0613762 0 0
0 0 0
1 0 0
1 1 0
0 1 0
0 0 0
0 0 0
1 0 0
1 1 0
0 1 0
0 0 0
0.993076 0 0
1 0 0
1 0.00298206 0
0.993076 0 0
0 0 0
1 0 0
1 1 0
0 1 0
0 0 0
0 0 0
1 0 0
1 0.962877 0
0 0.04933 0
0 0 0
0 0 0
1 0 0
1 1 0
0 1 0
0 0 0
0.879352 0 0
1 0 0
1 0.0611442 0
0.879352 0 0
0 0 0
1 0 0
1 1 0
0 1 0
0 0 0
0 0 0
1 0 0
1 1 0
0 1 0
0 0 0
0 0 0
1 0 0
1 1 0
0 1 0
0 0 0
0 0 0
1 0 0
1 1 0
0.676665 1 0
0 0.193878 0
0 0 0
0.787401 0 0
1 0 0
1 0.12398 0
0.787401 0 0
0 0 0
1 0 0
1 1 0
0 1 0
0 0 0
0 0 0
1 0 0
1 1 0
0 1 0
0 0 0
0 0 0
1 0 0
1 1 0
0 1 0
0 0 0
0 0 0
1 0 0
1 1 0
0.683776 1 0
0 0.20772 0
0 0 0
0.912742 0 0
1 0 0
1 0.0408928 0
0.912742 0 0
0 0 0
1 0 0
1 1 0
0 1 0
0 0 0
0.056281 0 0
1 0 0
1 1 0
0.772175 1 0
0.526404 0.667775 0
0.056281 0 0
0 0 0
0.314563 0 0
0.331862 0.0108745 0
1 0.44467 0
1 1 0
0 1 0
0 0 0
0.0436605 0 0
1 0 0
1 1 0
0.787422 1 0
0.531877 0.667281 0
0.0436605 0 0
0 0 0
0.304221 0 0
0.856299 0.317843 0
0.931639 0.36229 0
1 0.403875 0
1 1 0
0 1 0
0 0 0
0 0 0
0.266726 0 0
0 0.106918 0
0 0 0
0.246924 0 0
1 0 0
1 0.935737 0
0.663299 0.526357 0
0.246924 0 0
0 0 0
0.24123 0 0
0.793395 0.305283 0
1 0.422931 0
1 1 0
0 1 0
0 0 0
0.883797 0 0
1 0 0
1 0.0368029 0
0.883797 0 0
0 0 0
1 0 0
1 1 0
0 1 0
0 0 0
0.282626 0 0
1 0 0
1 0.869665 0
0.90896 0.762529 0
0.282626 0 0
0 0 0
1 0 0
1 1 0
0 1 0
0 0 0
0 0 0
1 0 0
1 1 0
0 1 0
0 0 0
0 0 0
1 0 0
1 1 0
0 1 0
0 0 0
0 0 0
0.500799 0 0
0 0.268886 0
0 0 0
0 0 0
1 0 0
1 1 0
0 1 0
0 0 0
0 0 0
1 0 0
1 1 0
0 1 0
0 0 0
0.39376 0 0
1 0 0
1 0.911209 0
0.93151 0.81506 0
0.899416 0.768165 0
0.39376 0 0
0 0 0
0.0486614 0 0
0.210951 0.112633 0
0.584526 0.378487 0
1 0.682029 0
1 1 0
0 1 0
0 0 0
0.0894366 0 0
1 0 0
1 0.962241 0
0.0894366 0 0
0.472908 0 0
1 0 0
1 0.347072 0
0.472908 0 0
0.112084 0 0
1 0 0
1 1 0
0.900307 1 0
0.345877 0.303693 0
0.112084 0 0
0 0 0
0.0997759 0 0
0.63204 0.384936 0
0.988074 0.651663 0
1 0.660927 0
1 1 0
0 1 0
0 0 0
0 0 0
0.440619 0 0
0 0.217326 0
0 0 0
0.240984 0 0
1 0 0
1 0.967355 0
0.927035 0.878118 0
0.240984 0 0
0 0.149142 0
0.00791053 0.153194 0
0.86917 0.606221 0
1 0.677952 0
1 1 0
0 1 0
0 0.149142 0
0.277128 0 0
1 0 0
1 0.956785 0
0.667183 0.525832 0
0.277128 0 0
0.450895 0 0
1 0 0
1 0.385406 0
0.450895 0 0
0 0 0
1 0 0
1 1 0
0 1 0
0 0 0
0 0 0
1 0 0
1 1 0
0 1 0
0 0 0
0 0.063727 0
0.27495 0.232586 0
0.537308 0.398991 0
1 0.703542 0
1 1 0
0 1 0
0 0.063727 0
0 0 0
1 0 0
1 1 0
0 1 0
0 0 0
0.649261 0 0
1 0 0
1 0.242579 0
0.649261 0 0
0 0 0
0.190448 0 0
0.354616 0.11261 0
0.956693 0.536833 0
1 0.568314 0
1 1 0
0 1 0
0 0 0
0 0 0
1 0 0
1 1 0
0.669401 1 0
0.0150411 0.117211 0
0 0.0956852 0
0 0 0
0 0 0
1 0 0
1 1 0
0 1 0
0 0 0
0.967101 0 0
1 0 0
1 0.00857418 0
0.967101 0 0
0 0 0
1 0 0
1 1 0
0 1 0
0 0 0
0 0 0
0.242646 0 0
0.953585 0.512626 0
1 0.547106 0
1 1 0
0 1 0
0 0 0
0 0 0
1 0 0
1 1 0
0 1 0
0 0 0
0.617878 0 0
1 0 0
1 0.282839 0
0.617878 0 0
0 0.071841 0
0.261754 0.219422 0
0.378086 0.287145 0
1 0.655462 0
1 1 0
0 1 0
0 0.071841 0
0 0 0
1 0 0
1 1 0
0.830639 1 0
0 0.00588005 0
0 0 0
0 0 0
0.150323 0 0
0.329027 0.114526 0
0.962949 0.531752 0
1 0.556928 0
1 1 0
0 1 0
0 0 0
0.504357 0 0
1 0 0
1 0.374552 0
0.504357 0 0
0 0.00707151 0
0.916546 0.539379 0
1 0.589128 0
1 1 0
0 1 0
0 0.00707151 0
0 0 0
0.041013 0 0
0 0.0929983 0
0 0 0
0.192391 0 0
1 0 0
1 1 0
0.880235 1 0
0.68194 0.724488 0
0.508124 0.473184 0
0.192391 0 0
0.702415 0 0
1 0 0
1 0.0914555 0
0.702415 0 0
0 0.193931 0
0.909358 0.705316 0
1 0.760152 0
1 1 0
0 1 0
0 0.193931 0
0.20531 0 0
1 0 0
1 0.97868 0
0.605387 0.511327 0
0.20531 0 0
0 0.177508 0
0.871274 0.601696 0
[...]
CELL_DATA 5259
FIELD FieldData 3
weight 1 5259 float
 1.05328 1.05962 1.06539 1.06538 1.07206 1.08415 1.07196 1.07803 1.07797 1.0721 1.07817 1.07187 1.08455 1.03413 1.03433 1.04672 1.04076 1.04691 1.05301 1.04682 1.04677 1.05302 1.05327 1.0531 1.05337 1.05943 1.05943 1.05327 1.05935 1.05918 1.0656 1.0654 1.06566 1.14064 1.16573 1.05938 1.06544 1.06563 1.07202 1.13459 1.05917 1.05305 1.05325 1.12837 1.05913 1.05943 1.06555 1.05301 1.05929 1.05327 1.15294 1.06558 1.05954 1.07181 1.06573 1.07173 1.19045 1.07212 1.07836 1.06574 1.18438 1.07195 1.07188 1.07804 1.07817 1.09083 1.08434 1.07795 1.147 1.07209 1.07804 1.07182 1.08437 1.07822 1.14663 1.07183 1.07828 1.07788 1.08456 1.13445 1.07837 1.08432 1.0906 1.0844 1.12807 1.09061 1.08454 1.0967 1.09694 1.09086 1.09069 1.12821 1.09056 1.0969 1.10308 1.10315 1.15932 1.09708 1.08439 1.07788 1.08433 1.1342 1.08415 1.09052 1.09049 1.08454 1.14087 1.09668 1.08449 1.09084 1.18414 1.10324 1.09051 1.15931 1.09671 1.09702 1.10327 1.15316 1.09672 1.09703 1.0906 1.17185 1.10951 1.09668 1.17791 1.1092 1.10332 1.10927 1.10934 1.17803 1.10302 1.18453 1.11575 1.18454 1.18436 1.19075 1.18425 1.19085 1.1779 1.18454 1.19044 1.1908 0.702997 1.1845 1.17202 1.19046 0.753136 1.18459 0.778352 1.19069 1.19066 0.709412 1.18418 1.19697 0.972034 1.18414 0.746832 1.1904 0.746993 1.1842 1.19064 0.965391 1.19701 1.19676 0.753375 1.18428 0.959526 1.19058 0.759466 1.19064 1.18427 1.18454 0.978039 0.778322 1.18454 1.19693 1.19081 0.978111 0.765624 1.1842 0.972048 1.1906 0.965851 1.19042 0.784139 0.946634 1.19085 0.784255 1.19041 0.940873 1.19056 1.1908 1.19711 0.790874 1.19047 1.19062 0.928339 1.1908 0.953131 0.803001 0.959149 1.17817 0.79692 0.94665 1.19705 0.940849 0.815566 0.984221 0.997044 1.18454 0.990456 0.77164 1.19664 0.97175 0.990428 0.790726 0.984301 1.19671 0.978015 0.78449 1.1843 0.965671 1.19066 0.802927 1.19684 0.753221 0.953341 0.815675 1.19044 0.953341 1.19706 0.965558 0.797085 1.19687 0.959501 1.19708 0.91566 0.753031 1.19076 0.896655 1.19708 0.740491 0.934133 1.19043 0.921932 0.759458 1.19667 0.772076 0.915613 0.753249 1.19063 0.909599 1.19686 1.19705 0.884598 0.890746 1.19674 1.19692 0.734145 1.19665 1.19684 0.878286 1.19686 1.19687 0.896838 1.19687 0.771895 0.884148 1.19672 1.19712 0.890406 0.803038 1.19677 0.765393 0.940684 1.19057 0.9344 0.790489 0.928132 1.19697 0.809215 0.946719 1.19707 0.928048 0.796685 1.19673 0.747053 0.921693 0.803296 1.19062 0.90953 0.778255 0.903353 1.19678 0.796682 0.752924 0.884592 1.19702 0.753075 1.19669 0.903081 0.790518 0.90311 1.19702 0.921757 0.796851 0.89702 1.00925 0.78431 1.00323 1.01561 1.00318 1.1968 0.996728 0.984554 0.803278 0.971928 0.746643 1.19696 0.959315 0.815395 0.965434 0.978144 0.740757 1.19683 0.965765 0.834602 1.19666 0.959528 1.00922 1.02201 0.846897 0.996833 1.02808 0.746859 0.828007 1.0221 1.19675 1.01573 0.978321 1.12173 0.971664 0.759602 0.840522 0.972014 1.00304 1.10933 0.98433 0.990554 1.1158 1.11571 0.753327 0.82208 1.1221 0.959615 1.10943 1.10918 1.11562 1.12196 0.940692 0.821786 1.11543 1.12202 0.934574 1.12798 1.12795 0.809496 0.953117 1.12824 1.13452 1.13459 0.946741 1.12205 0.846726 1.12171 0.765726 1.11552 0.934306 1.13434 0.765823 0.828253 1.12835 0.922109 1.12813 1.12799 0.853101 1.10943 1.10924 0.915789 1.10946 0.759388 1.10949 1.11586 1.10322 1.11558 0.753278 1.09676 1.10334 0.853098 1.09677 0.909572 1.10306 0.759618 1.1155 1.10928 1.10298 0.859549 0.897039 1.12207 0.759315 1.1221 0.853313 1.11585 1.1279 1.10933 1.10943 0.865786 1.12177 0.928301 1.11573 1.12208 1.12823 1.13428 0.90913 0.878357 1.12799 0.759343 1.13415 1.14675 0.915629 0.871664 0.759226 1.14042 0.965511 1.14053 1.13413 0.859236 1.14049 1.12806 0.953245 1.12209 0.947029 1.13424 0.971844 0.865399 1.1471 1.14057 1.14083 0.86563 0.959151 1.14051 1.14702 1.14681 1.14071 1.14691 1.14072 0.959603 1.13415 1.14667 1.14073 0.871752 1.12807 1.12203 0.940507 1.13428 0.877938 1.11564 1.13434 1.12825 1.14044 0.871703 1.13438 0.921956 1.1155 1.12165 1.12813 1.1346 1.14076 1.14706 0.928226 1.15315 1.14683 0.878225 1.1342 1.12818 1.12207 1.12797 0.940462 1.13426 0.815726 1.13437 1.14052 1.13418 1.09044 0.934243 0.80925 1.09675 0.784504 1.08458 1.10922 1.09688 0.834518 0.915618 1.10294 1.0908 1.09039 0.846962 0.777939 1.078 0.859465 1.08414 0.840761 1.08461 1.11562 1.0969 1.09693 1.10332 0.840416 1.10295 1.0971 1.0906 0.777881 1.08423 0.834361 0.84068 1.09086 0.778357 1.09074 0.871951 1.08448 0.790422 1.07196 0.859444 0.834433 1.06567 0.827953 1.05923 0.790454 0.827908 1.08425 1.07796 0.821716 1.06543 0.828237 1.072 0.796902 1.05333 1.04667 1.05957 0.821893 0.797104 0.802896 1.04686 1.07826 0.815579 1.07182 1.07824 0.809286 1.07166 1.06559 0.846958 1.05311 0.790714 1.04697 0.840563 0.815626 1.05933 1.06577 1.07188 0.85948 0.790472 0.81552 0.790649 1.05333 0.834126 0.859204 0.803141 1.10929 1.1096 1.11542 0.85322 0.796647 1.12186 0.803333 1.11541 0.865503 0.797081 0.87181 1.10945 0.796826 1.10294 1.09666 0.878366 1.09695 0.803126 1.10962 0.878223 1.10325 0.853098 1.12805 0.803177 0.871738 1.12163 1.122 0.846918 1.11556 0.802978 1.12796 0.859407 0.865429 1.12792 0.809224 1.11575 0.865389 0.852991 0.809572 1.10947 0.865665 1.12176 0.852921 1.10962 0.82797 1.10305 1.08413 1.09044 0.846627 0.815804 1.07791 1.10332 0.871918 0.822094 1.0904 1.08423 0.840523 0.859211 1.07822 0.853367 1.06547 0.859146 1.07187 1.07803 1.05933 0.821657 1.07211 1.06539 1.09708 1.09087 1.09709 1.08417 0.796704 1.10945 1.10305 1.08425 1.06568 1.09043 1.09059 1.07792 1.07194 1.15295 1.15301 0.796885 1.15318 1.15317 1.15957 1.15916 0.790513 1.14711 1.15297 1.14697 1.15313 1.14682 1.15927 1.16587 1.15334 1.1595 1.16577 1.15962 1.15928 1.15324 1.15913 1.15944 1.16545 1.15324 1.15914 1.14067 1.1408 1.14681 1.14679 1.14666 0.80299 1.14697 1.14085 0.803149 1.15307 1.14072 0.778243 1.15302 1.1593 1.15309 0.784477 1.1532 1.14674 1.14686 1.14077 1.15936 1.15289 0.803034 1.14669 1.16579 1.16554 1.17202 1.17179 1.17194 1.15941 0.809212 1.15939 1.15959 1.16545 1.17199 0.797009 1.16566 1.17798 1.17186 1.17794 1.17807 1.17195 0.797116 1.17808 1.17817 1.1721 0.740841 1.16547 1.16573 1.17813 1.17177 1.17205 1.16557 1.15956 1.16541 1.17212 1.16581 0.740589 1.17208 1.1531 1.15294 1.15308 1.15962 1.15936 1.15915 0.890622 1.16541 0.877944 1.1779 1.17195 1.17194 0.859508 1.16562 1.16564 1.14667 1.15303 1.16575 1.15288 1.15948 0.884535 1.1344 1.13421 1.12182 1.14048 0.865823 1.12823 1.13426 1.12834 0.865717 1.11546 1.12179 1.11544 1.12197 0.846757 1.11543 0.77822 0.784429 1.10961 0.852923 1.14064 1.13447 1.12807 1.1471 0.82813 0.790565 1.13462 1.13431 0.784156 1.12789 0.853086 0.784208 0.847051 1.14083 1.12827 1.12184 0.765794 0.815671 1.10334 1.09671 1.12189 0.834289 1.1157 0.778252 1.10957 1.09692 0.871711 1.10289 0.79044 1.08449 1.09674 1.09669 1.09062 0.890461 1.10937 0.821923 0.859253 1.11563 1.10326 0.871905 1.12812 0.809235 1.1154 1.12179 0.909595 1.10941 1.09702 1.1029 0.815849 1.10939 1.10307 1.10336 0.915584 1.14674 0.834217 1.14667 0.902925 1.14061 1.1467 1.14082 0.821834 0.897014 1.14082 1.13446 1.1346 1.14058 0.859465 0.828068 1.14681 1.14052 0.840697 0.834202 1.1343 1.15313 0.87803 1.15313 0.815438 1.14699 1.15288 1.14671 0.853217 0.803218 1.14046 1.14674 0.809352 1.14668 1.14048 1.12211 0.796655 0.809618 1.1281 1.11543 1.13461 0.790397 0.828246 1.12188 1.128 1.11586 0.809212 0.828256 1.10916 1.10318 1.11579 0.822015 1.10915 1.13432 1.12825 1.1219 0.846698 1.14045 1.12808 1.12205 0.840444 1.12832 0.740525 1.11541 0.79052 0.840657 1.10922 0.853361 0.859185 0.747007 0.796921 0.846699 1.10934 0.790638 0.853202 0.753071 1.12174 0.840659 0.834228 1.11553 0.834298 1.02799 0.803007 1.00925 1.01578 0.83454 1.03458 1.0406 1.02792 0.809436 0.84062 0.79084 1.02195 0.99066 0.8221 0.996692 0.852994 1.00306 0.803344 1.01574 0.98446 0.821968 0.846686 0.790672 0.984175 0.796941 1.03461 0.853306 0.796995 1.04058 0.796625 1.04087 0.803336 1.04042 1.02791 0.803124 1.03439 0.790464 1.02803 0.79087 1.02211 0.997017 0.802976 1.01574 0.784347 1.0221 0.809623 1.00925 1.00957 0.784136 0.81542 0.978354 0.809424 0.76562 0.796839 0.79054 0.796955 0.965808 0.759377 0.790506 0.978118 0.790651 0.802905 0.972051 0.809568 0.796858 0.803317 0.796781 0.809166 0.97169 0.821995 0.796971 0.815485 0.753025 0.965771 0.803351 0.822009 0.803108 0.847122 0.928081 0.784386 0.828331 0.946675 0.796809 0.834279 0.78432 0.934232 0.815498 0.796724 0.921759 0.822016 0.778035 0.802955 0.815437 0.796948 0.990771 0.803222 0.81558 0.790807 0.978203 0.803257 0.828027 0.784204 0.996645 0.809592 0.827975 1.00333 0.809208 0.803045 0.809319 0.827987 0.815505 0.809318 0.815594 0.809503 0.80955 0.815624 0.821852 0.815457 0.822076 0.828116 0.815501 0.828116 0.827977 0.821724 0.834462 0.822111 0.815439 0.828257 0.821659 0.83418 0.990828 0.822058 0.822074 0.809186 0.978071 0.828109 0.840602 0.952953 0.834342 0.890579 0.834453 0.815833 0.884339 0.940707 0.834619 0.890494 0.984621 0.77172 0.84706 0.959469 0.89671 0.840382 0.790644 0.846821 0.890539 0.803111 0.934483 0.840836 1.04691 0.896845 0.809367 1.03451 0.797004 0.802908 1.05913 1.05302 1.05921 0.815496 1.02816 0.884185 1.02207 0.809285 0.897047 0.765784 1.01586 0.797119 1.04038 0.897109 0.784239 0.815611 1.04672 1.02194 0.821773 0.809516 0.89053 0.821676 1.01555 1.06553 1.06562 0.815531 0.846629 1.05936 1.07791 1.05322 0.903197 0.834142 1.05915 0.79084 1.04667 0.903274 1.05301 0.840537 0.809472 0.821974 1.03432 0.903002 0.853225 0.827887 1.04706 0.828116 0.821811 0.909127 0.840788 1.0405 0.821989 1.00933 0.828284 0.840398 0.903333 0.984601 0.821719 0.828342 0.909566 0.815535 0.990813 0.853373 1.00331 0.840817 0.922027 1.00924 0.827925 0.834388 0.927912 0.990389 0.834275 0.846727 0.915702 0.834449 0.965779 0.859139 0.846855 0.92201 0.959517 0.846867 0.909274 0.915548 0.946735 0.840838 0.890613 0.953271 0.909501 0.852893 0.971892 0.915423 0.847023 0.909586 0.965436 0.903115 0.921658 0.828164 0.934282 0.897033 0.934521 0.840711 1.02168 0.928302 0.853272 0.915547 1.0154 0.847036 0.884405 1.00316 0.853265 0.947 0.859325 0.990431 0.878292 0.859375 0.85292 1.03423 0.890446 0.847094 0.853137 1.02789 0.85919 0.903339 0.865621 1.0033 0.865602 0.890566 0.884504 0.865526 0.996906 0.877889 0.859271 0.871871 0.9405 0.8971 0.877969 0.884619 0.997109 0.871899 0.984262 0.902993 0.878276 0.853222 0.977911 0.87189 0.859354 0.915381 0.947022 0.865653 0.865543 0.934496 0.865489 0.921884 0.928272 0.865434 0.859625 0.921785 0.865544 0.903018 0.884461 0.871826 0.934591 0.878348 0.872025 0.909172 0.884433 0.890439 0.765641 0.884586 0.896708 0.771928 0.928199 0.915603 0.878316 0.784181 0.89074 0.915869 0.878267 0.796702 0.909342 0.877913 0.890685 0.777948 0.903108 0.878045 0.90309 0.921716 0.871907 0.815535 0.921831 0.828 0.928223 0.828034 0.909609 0.815867 0.884326 0.890784 0.834419 0.896751 0.84081 0.840455 0.902945 0.84075 0.821936 0.896825 0.846761 0.92201 0.827904 0.915745 0.921815 0.915604 0.76543 0.915398 0.790676 0.934269 0.884437 0.803032 0.940425 0.940478 0.890391 0.90312 0.934149 0.953003 0.809217 0.946915 0.90936 0.940854 0.796673 0.790731 0.928116 0.928295 0.821683 0.940532 0.896805 0.947077 0.834197 0.946691 0.897053 0.840763 0.940831 0.871672 0.846863 0.946983 0.959423 0.865537 0.959325 0.846788 0.953365 0.965495 0.965436 0.865409 0.89057 0.971951 0.890846 0.972063 0.953255 0.865598 0.953163 0.965748 0.859168 0.965717 0.859236 0.884287 0.959413 0.878272 0.928341 0.828229 0.934363 0.815851 0.909399 0.928214 0.946926 0.81556 0.915798 0.940613 0.828148 0.946954 0.790476 0.940618 0.92196 0.834521 0.934402 0.940669 0.928153 0.821957 0.809408 0.928144 0.802983 0.921643 0.928222 0.934332 0.946769 0.765693 0.940441 0.796695 0.852959 0.93423 0.859568 0.803024 0.759429 0.896875 0.953258 0.903083 0.809234 0.952929 0.790537 0.859494 0.790668 0.953079 0.771867 0.871704 0.79707 0.959413 0.965581 0.896651 0.77181 0.959551 0.878154 0.803063 0.959197 0.840675 0.909356 0.946717 0.80313 0.947062 0.821899 0.809509 0.953196 0.940855 0.784416 0.803069 0.815452 0.953158 0.790824 0.934603 0.80321 0.959159 0.915777 0.834508 0.815709 0.959558 0.821803 0.934212 0.853065 0.946851 0.809471 0.971986 0.809279 0.871783 0.784188 0.809508 0.940741 0.865789 0.815716 0.965434 0.809198 0.815537 0.859373 0.77194 0.822043 0.884175 0.952994 0.796876 0.828354 0.87829 0.952979 0.82821 0.871788 0.821698 0.884294 0.959593 0.765782 0.865565 0.828307 0.778143 0.859343 0.834345 0.959477 0.865828 0.790435 0.846685 0.871739 0.840783 0.971925 0.878089 0.778359 0.834606 0.877934 0.965439 0.915689 0.847027 0.871633 0.978138 0.99057 0.796938 0.890474 0.915669 0.952886 0.796677 0.896839 0.902894 0.803169 0.89085 0.940479 0.903115 0.909388 0.834226 0.96584 0.92807 0.821685 0.902978 0.946984 0.827922 0.902942 0.959354 0.921756 0.821738 0.897015 0.909199 0.971903 0.884157 0.81581 0.896649 0.884384 0.878322 0.822043 0.971647 0.903178 0.846914 0.990598 0.815794 0.890418 0.884549 0.990819 0.996707 0.890498 0.859216 0.828081 0.984487 0.865861 0.909215 0.977897 0.859255 0.828268 0.934502 0.840448 0.896863 0.996858 0.840552 0.871712 1.00935 0.84045 1.00303 0.940485 0.984276 1.0033 1.00927 0.846662 1.01568 1.00937 1.02171 0.853133 0.8342 0.915671 1.02192 0.846769 1.02798 1.02837 0.853036 0.921845 0.83446 1.04075 0.890639 1.03444 0.847014 1.01567 0.827903 0.865814 1.02173 0.853165 1.02192 0.834556 1.03461 0.884458 0.853088 1.03416 0.840625 1.02807 1.04081 0.890795 1.04076 0.834245 1.02795 0.846921 1.04696 0.871943 0.834211 1.04055 0.878118 1.04705 0.840737 0.84073 0.83424 0.834144 1.04668 0.87789 0.847099 0.884563 0.828035 0.965852 0.840682 0.872122 0.853266 0.971762 0.859158 0.815859 0.890768 0.965529 0.815762 0.884461 0.940465 0.877918 0.959503 0.84701 0.859186 0.953118 0.853124 0.840692 0.853244 0.978334 0.809375 0.846627 0.984429 0.797074 0.865529 0.734149 1.00303 0.859582 0.809158 1.00333 0.990732 0.865536 0.784328 1.02205 0.915609 0.790552 0.727947 0.796629 1.02818 0.921825 0.771903 0.984289 0.746684 0.909292 0.778367 0.990843 0.928188 0.852998 0.978274 0.928339 0.784126 0.859532 0.915722 0.990765 0.834416 0.922072 0.996766 0.90927 0.796948 0.803123 0.909326 1.02209 0.865456 0.777991 0.896685 1.01585 0.915425 0.778156 0.821897 1.00309 0.915645 0.802964 1.00947 0.815623 1.01559 1.03439 0.902954 1.0406 0.765419 0.803067 1.03449 1.04676 0.940721 1.04704 0.790566 1.05296 1.04685 1.05302 0.803191 1.05306 1.06587 0.784316 0.947098 1.05915 0.765694 1.04077 0.934601 1.08427 1.09058 0.790421 1.07199 1.07821 0.953102 1.04698 1.07163 1.05324 0.784245 0.953101 1.05298 1.05317 1.05914 1.05918 0.797 1.06565 0.934459 1.07164 1.04671 1.06564 1.06576 0.803173 1.06582 0.921935 1.07835 0.927918 1.05333 0.921664 1.05306 0.927877 1.05934 1.09076 0.934458 1.0717 1.08434 1.09695 0.940781 0.940846 1.08439 1.06542 0.89682 0.834289 1.05917 0.896836 1.07825 0.827912 0.90299 0.853148 1.0468 0.909518 1.0593 0.753252 0.909276 0.865597 0.734523 0.840429 0.915523 0.703344 0.871717 0.703292 0.878024 1.04664 0.865685 1.04059 0.759193 0.871952 0.821937 1.02799 0.765396 0.846657 0.902965 1.03452 0.778187 0.878285 1.04068 0.878062 0.728303 0.884361 1.02809 0.928351 0.859559 1.00923 0.934189 0.840821 1.04055 0.715789 0.921694 0.859165 0.997091 0.753162 0.834199 0.978215 0.909569 0.890507 0.984168 0.928101 0.765856 0.884526 0.971974 0.934176 0.903314 0.74688 0.915601 0.890671 0.996981 0.871946 0.790636 0.921945 0.990536 0.909134 0.777987 0.890842 0.921963 0.959204 0.772002 0.884397 1.03438 0.79672 0.94047 1.01557 0.896809 0.946878 0.797086 1.02171 0.927959 0.915653 1.04071 0.802995 0.965551 0.903194 0.890717 0.865425 0.815417 0.884554 0.784499 0.915401 1.00295 0.759577 0.878143 0.984247 0.790649 0.896895 0.978126 0.922081 0.977935 0.771826 0.928123 0.934285 0.809372 0.953088 0.959415 1.00914 0.80926 0.940795 0.990751 0.815746 0.759255 0.965825 0.821906 0.953069 1.09664 0.809568 1.09039 0.75329 0.828177 1.07199 0.828259 0.765806 0.834135 0.834479 0.853267 0.746816 0.809598 1.09074 0.871834 0.815633 1.10328 0.865697 0.746846 0.815552 1.08424 0.840704 0.809162 0.85317 1.07807 0.884387 1.05333 0.821836 0.847053 0.853209 0.846863 0.84075 1.04665 0.834552 0.846709 1.0596 0.840811 1.06581 0.828098 1.05305 0.846796 0.834164 1.05308 0.840854 0.86538 1.09668 0.865386 0.865749 1.09086 0.85289 0.890578 1.07806 0.859382 0.871874 0.859269 0.878342 0.884147 0.865446 1.10303 0.853139 0.902911 0.859512 0.909285 1.09066 0.865498 0.872071 1.09676 0.8904 0.877997 0.934151 1.07208 0.871718 1.05953 0.959586 0.947112 0.877936 0.978323 0.82175 0.946856 0.940559 1.06585 0.827882 0.959354 1.0783 0.953148 0.834342 1.05947 0.896902 0.822027 0.903031 1.02826 0.915785 0.828321 1.02176 0.896984 0.828128 0.915778 0.847045 0.909507 0.821744 0.927936 1.03448 0.82801 0.971957 0.984305 1.00954 0.834414 0.92803 1.01553 0.834484 0.940489 0.996996 0.996876 0.840485 0.959507 0.971772 0.840744 0.971976 0.840795 0.996695 0.865707 0.965816 0.85916 1.00324 0.86569 1.0031 0.965756 0.853002 0.98414 0.990784 0.978029 1.04684 1.01574 1.01551 0.87163 0.990638 1.0408 1.00932 0.877958 1.03428 0.997095 0.871746 1.0468 1.02208 1.02212 0.859459 1.03427 0.846993 1.02821 1.02173 0.853033 0.971934 1.00337 0.877946 0.996725 1.00915 0.865588 0.965811 0.997121 0.872083 0.990752 0.82198 1.00288 0.840681 1.0095 0.834367 1.03454 0.853192 1.02207 1.01539 0.846703 1.02826 0.99665 0.85914 1.03456 0.840408 1.00335 1.04062 1.07185 0.853271 1.05956 0.847105 0.865678 1.04699 0.85962 1.05332 1.07197 1.07809 0.853221 1.08444 1.08416 1.07797 0.946702 1.09066 0.859139 0.871924 1.04062 0.953263 0.853031 1.06542 0.865551 1.07195 0.928329 1.08418 1.04704 0.865709 0.965675 1.07209 0.859433 0.934612 1.05961 0.934573 0.872054 0.903179 1.08433 0.921668 1.09073 0.871628 1.09685 0.896848 0.871858 1.09065 0.92821 0.878318 1.0971 0.872058 0.984361 0.884398 0.878342 0.984473 0.915742 0.884377 1.00918 0.965598 0.890538 0.972024 0.990715 0.940755 0.85941 0.997084 0.865482 0.971835 0.952934 1.00303 0.959549 0.865575 0.909225 1.01581 0.85931 0.940556 1.04085 0.872051 0.878214 0.865755 1.04054 0.871636 1.02814 0.859223 1.0344 0.865757 0.903031 1.05916 0.859364 0.947083 1.00925 0.871792 0.896831 0.752985 1.00327 0.897116 0.890564 0.746858 1.01545 0.865537 0.88436 0.746821 1.00308 0.884138 0.846948 1.02169 0.87818 1.02827 0.878368 1.02163 0.890852 1.02807 0.896899 1.03444 0.871999 1.05309 0.890874 0.853109 1.04673 0.828143 0.896837 1.04682 0.88445 0.790497 1.05304 0.878109 0.790679 1.07795 0.77197 0.896841 0.79705 0.903123 0.790744 1.07182 0.78451 0.903129 1.06571 0.765855 1.07189 0.909332 0.771835 0.878211 1.07837 0.859541 0.884407 0.784134 1.08434 0.884606 0.872021 0.777941 1.07812 0.890772 1.08423 0.89679 0.802993 1.09055 0.809212 0.896891 1.05946 0.890862 1.06571 0.884586 0.890835 0.796638 1.06565 0.840624 0.809422 1.05325 0.903218 0.822008 0.796869 1.0655 0.896972 0.802992 0.790756 1.07813 0.784145 0.903024 1.08413 1.09052 0.790768 0.909209 1.07822 0.909232 1.09705 0.790639 0.903184 1.10294 1.04712 0.784326 1.03455 1.04709 1.05292 1.05324 0.984322 1.05945 0.903024 0.753136 1.05946 0.953052 1.07195 0.75915 1.06579 1.06538 1.06571 0.909514 1.07798 1.05309 1.05937 0.759303 1.07201 1.06564 0.909549 1.05947 0.928279 0.753364 1.06585 1.05957 1.0779 0.909471 0.75321 0.959427 1.0721 1.07833 1.07177 0.947085 0.921742 1.08461 1.08428 0.921871 1.07806 1.07801 0.759308 0.915845 0.915663 0.74668 1.08428 0.903071 1.09057 0.921759 1.08455 0.915421 1.09691 1.09084 1.09085 0.915823 1.09679 0.784436 1.09058 1.09701 1.08439 0.921706 1.09046 1.09688 0.909289 0.928089 1.08436 1.09703 0.890462 1.10317 0.928327 0.984245 1.09042 1.10924 0.902904 0.953091 1.10336 1.1092 1.10298 0.897078 1.11548 0.934505 1.05917 1.07822 0.990541 0.753103 0.90945 1.07172 1.07821 1.0904 0.902928 1.09076 1.09046 1.09691 0.909304 1.08448 1.09079 0.978021 1.10305 0.915539 1.07209 1.08442 0.965592 1.08423 0.915786 1.07823 1.09056 0.978089 1.0906 1.10305 0.909549 0.94682 1.09676 1.09681 0.915745 0.915583 1.0967 0.922117 1.11547 0.921784 1.10949 1.10328 1.09664 0.928079 1.10299 1.10939 1.10917 0.921689 1.10938 1.10923 0.909589 1.11547 1.12185 1.12176 0.9218