# vtk DataFile Version 3.0
vtk output
ASCII
DATASET UNSTRUCTURED_GRID
POINTS 37412 float
0 0 0
0.00263899 0 0
0 0.00282786 0
0 0 0
0 0 0
0.00662642 0 0
0 0.00545492 0
0 0 0
0 0 0
0.000332998 0 0
0 0.000334948 0
0 0 0
0 0 0
0.0361354 0 0
0 0.0407502 0
0 0 0
0 0 0
0.238613 0 0
0 0.0671537 0
0 0 0
0 0 0
0.0006216 0 0
0 0.000623541 0
0 0 0
0 0 0
0.379674 0 0
0.197626 0.44821 0
0 0.904099 0
0 0 0
0 0 0
0.0523306 0 0
0 0.059711 0
0 0 0
0 0 0
0.44205 0 0
0.376797 0.0397778 0
0 0.258813 0
0 0 0
0 0 0
0.0236392 0 0
0 0.0220703 0
0 0 0
0 0 0
0.455061 0 0
0.187007 0.498362 0
0 0.827953 0
0 0 0
0 0 0
0.0245314 0 0
0.0156699 0.00774588 0
0 0.0206575 0
0 0 0
0 0 0
0.49144 0 0
0 0.381136 0
0 0 0
0 0 0
0.162601 0 0
0.490653 0.713572 0
0.615849 1 0
0 1 0
0 0 0
0 0 0
0.0249996 0 0
0 0.0249974 0
0 0 0
0 0 0
0.45919 0 0
0.194693 0.12214 0
0 0.208825 0
0 0 0
0 0 0
0.0373306 0 0
0 0.0397144 0
0 0 0
0 0 0
0.453967 0 0
0.163944 0.12279 0
0 0.189726 0
0 0 0
0 0 0
0.0625274 0 0
0 0.0665149 0
0 0 0
0 0 0
0.425246 0 0
0.0904513 0.124343 0
0 0.156789 0
0 0 0
0 0 0
0.376449 0 0
0.0500922 0.11262 0
0 0.128714 0
0 0 0
0 0 0
0.147146 0 0
0.410708 0.372204 0
0.196572 0.693275 0
0.176985 0.721829 0
0 0.97276 0
0 0 0
0 0 0
0.0535929 0 0
0 0.0575559 0
0 0 0
0 0 0
0.299172 0 0
0 0.0776366 0
0 0 0
0 0 0
0.037572 0 0
0 0.0375628 0
0 0 0
0 0 0
0.541029 0 0
0.478855 0.0921874 0
0.137153 0.571367 0
0 0.756169 0
0 0 0
0 0 0
0.41197 0 0
0.0352127 0.12551 0
0 0.136843 0
0 0 0
0 0 0
0.0318861 0 0
0 0.0262221 0
0 0 0
0 0 0
0.47168 0 0
0 0.307534 0
0 0 0
0 0 0
0.169962 0 0
0.27907 0.152835 0
0.845585 1 0
0 1 0
0 0 0
0 0 0
0.0502047 0 0
0 0.0502897 0
0 0 0
0 0 0
0.257506 0 0
0 0.0572528 0
0 0 0
0 0 0
0.468104 0 0
0.41309 0.139247 0
0.256871 0.495293 0
0.0240781 1 0
0 1 0
0 0 0
0 0 0
0.491194 0 0
0.257994 0.120421 0
0 0.244453 0
0 0 0
0 0 0
0.517291 0 0
0.301243 0.112307 0
0 0.263117 0
0 0 0
0 0 0
0.0530997 0 0
0 0.0412319 0
0 0 0
0 0 0
0.493964 0 0
0 0.257538 0
0 0 0
0 0 0
0.0275482 0 0
0 0.0239625 0
0 0 0
0 0 0
0.69376 0 0
0.515933 0.193791 0
0.0632307 0.674544 0
0 0.73967 0
0 0 0
0 0 0
0.0720781 0 0
0 0.0634151 0
0 0 0
0 0 0
0.473893 0 0
0.278104 0.493489 0
0.0659059 1 0
0 1 0
0 0 0
0 0 0
0.103673 0 0
0 0.117822 0
0 0 0
0.520697 0 0
1 0 0
1 0.268207 0
0.520697 0 0
0 0 0
0.0492064 0 0
0 0.0460237 0
0 0 0
0 0 0
0.0869129 0 0
0 0.0917907 0
0 0 0
0.521275 0 0
1 0 0
1 0.249528 0
0.521275 0 0
0 0 0
0.0871232 0 0
0 0.0870475 0
0 0 0
0 0 0
0.191402 0 0
0.378059 0.19798 0
0.257678 0.495273 0
0.0422031 1 0
0 1 0
0 0 0
0 0 0
0.0285826 0 0
0 0.0219333 0
0 0 0
0 0 0
0.097789 0 0
0 0.116933 0
0 0 0
0.756071 0.109017 0
0.554005 0 0
1 0 0
1 0.231326 0
0.774541 0.1186 0
0.756071 0.109017 0
0 0 0
0.446193 0 0
0.316403 0.458712 0
0.140272 1 0
0 1 0
0 0 0
0 0 0
0.123048 0 0
0.122692 0.000456368 0
0 0.147592 0
0 0 0
0 0 0
0.0992731 0 0
0 0.112301 0
0 0 0
0.46315 0.0124873 0
0.448042 0 0
1 0 0
1 0.400789 0
0.46315 0.0124873 0
0 0 0
0.112701 0 0
0.111663 0.00117215 0
0 0.119549 0
0 0 0
0 0 0
0.173842 0 0
0.362791 0.213969 0
0.236791 0.640589 0
0.117236 1 0
0 1 0
0 0 0
0 0 0
0.113136 0 0
0.11206 0.00114634 0
0 0.113326 0
0 0 0
0.588124 0.0805446 0
0.479229 0 0
1 0 0
1 0.361564 0
0.645379 0.120964 0
0.588124 0.0805446 0
0 0 0
0.124781 0 0
0.124501 0.000338983 0
0 0.141152 0
0 0 0
0 0 0
0.14804 0 0
0 0.177906 0
0 0 0
0 0 0
0.488775 0 0
0.235723 0.121137 0
0 0.226211 0
0 0 0
0 0 0
0.134379 0 0
0.150104 0.0250527 0
0.445624 0.517764 0
0.718951 1 0
0 1 0
0 0 0
0 0 0
0.0458751 0 0
0 0.0590046 0
0 0 0
0 0 0
0.0374442 0 0
0.0298666 0.00808694 0
0.0105569 0.0274424 0
0 0.037404 0
0 0 0
0 0 0
0.150054 0 0
0.244984 0.19579 0
0.583457 1 0
0 1 0
0 0 0
0 0 0
0.161901 0 0
0.276922 0.154924 0
0.449296 0.402392 0
0.306356 0.683824 0
0.140441 1 0
0 1 0
0 0 0
0 0 0
0.164004 0 0
0.169998 0.0100439 0
0.184535 0.0355956 0
0.707073 1 0
0 1 0
0 0 0
0 0 0
1 0 0
1 1 0
0 1 0
0 0 0
0 0 0
0.0278454 0 0
0 0.0244532 0
0 0 0
0 0 0
1 0 0
1 1 0
0 1 0
0 0 0
0 0 0
0.0269131 0 0
0 0.0253413 0
0 0 0
0 0 0
1 0 0
1 1 0
0 1 0
0 0 0
0 0 0
0.152071 0 0
0.283155 0.183909 0
0.466427 0.459414 0
0.815987 1 0
0 1 0
0 0 0
0 0 0
0.0372672 0 0
0.00891679 0.0283676 0
0 0.0367119 0
0 0 0
0 0 0
1 0 0
1 1 0
0 1 0
0 0 0
0 0 0
1 0 0
1 1 0
0 1 0
0 0 0
0 0 0
0.065524 0 0
0 0.0618195 0
0 0 0
0 0 0
1 0 0
1 1 0
0 1 0
0 0 0
0 0 0
0.141773 0 0
0.242564 0.196994 0
0.601537 1 0
0 1 0
0 0 0
0 0 0
1 0 0
1 1 0
0 1 0
0 0 0
0 0 0
0.0379964 0 0
0.0293537 0.00807462 0
0.00723298 0.0274838 0
0 0.0334592 0
0 0 0
0 0 0
1 0 0
1 1 0
0 1 0
0 0 0
0 0 0
1 0 0
1 1 0
0 1 0
0 0 0
0 0 0
0.151502 0 0
0.489622 0.640927 0
0.66943 1 0
0 1 0
0 0 0
0 0 0
0.0378625 0 0
0.0297616 0.00808442 0
0.00909035 0.0274607 0
0 0.0354834 0
0 0 0
0 0 0
1 0 0
1 1 0
0 1 0
0 0 0
0 0 0
0.0377415 0 0
0 0.0217848 0
0 0 0
0 0 0
1 0 0
1 1 0
0 1 0
0 0 0
0 0 0
1 0 0
1 1 0
0 1 0
0 0 0
0 0 0
0.143623 0 0
0.281416 0.185687 0
0.466728 0.452837 0
0.835685 1 0
0 1 0
0 0 0
0 0 0
0.0459825 0 0
0 0.0313951 0
0 0 0
0.528538 0 0
1 0 0
1 0.314567 0
0.528538 0 0
0 0 0
0.143349 0 0
0.489369 0.623084 0
0.688032 1 0
0 1 0
0 0 0
0 0 0
0.0752564 0 0
0 0.0586438 0
0 0 0
0 0 0
0.0593382 0 0
0 0.0462588 0
0 0 0
0.57799 0 0
1 0 0
1 0.218851 0
0.789854 0.113831 0
0.745719 0.0909206 0
0.57799 0 0
0 0 0
0.160586 0 0
0.379446 0.25674 0
0.306359 0.485321 0
0.130846 1 0
0 1 0
0 0 0
0 0 0
0.0496336 0 0
0.0417983 0.00837359 0
0.0228739 0.0272893 0
0 0.0487307 0
0 0 0
0.509076 0 0
1 0 0
1 0.327406 0
0.509076 0 0
0 0 0
0.0716029 0 0
0 0.0763053 0
0 0 0
0 0 0
0.0746909 0 0
0 0.0746528 0
0 0 0
0 0 0
0.211156 0 0
0.420014 0.181385 0
0.338519 0.46683 0
0.333955 0.481767 0
0.165078 1 0
0 1 0
0 0 0
0.58554 0.0807257 0
0.482434 0 0
1 0 0
1 0.380043 0
0.63917 0.120815 0
0.58554 0.0807257 0
0 0 0
0.0685173 0 0
0 0.0607381 0
0 0 0
0 0 0
0.0790834 0 0
0 0.0897767 0
0 0 0
0.704059 0.107857 0
0.538899 0 0
1 0 0
1 0.286665 0
0.719938 0.117809 0
0.704059 0.107857 0
0 0 0
0.0879915 0 0
0 0.0879833 0
0 0 0
0 0 0
0.151614 0 0
0.378569 0.256999 0
0.310501 0.485354 0
0.146145 1 0
0 1 0
0 0 0
0 0 0
0.110442 0 0
0.0759516 0.0307573 0
0 0.0880126 0
0 0 0
0 0 0
0.0779917 0 0
0 0.0409717 0
0 0 0
0 0 0
0.437343 0 0
0.0703388 0.126455 0
0 0.149132 0
0 0 0
0 0 0
0.109867 0 0
0.0712875 0.0284019 0
0 0.0725805 0
0 0 0
0 0 0
0.1696 0 0
0.43333 0.248256 0
0.238883 0.611494 0
0.0136269 1 0
0 1 0
0 0 0
0 0 0
0.114839 0 0
0.07714 0.0313574 0
0 0.0853721 0
0 0 0
0 0 0
0.295276 0 0
0 0.0630238 0
0 0 0
0 0 0
0.0830781 0 0
0 0.0732649 0
0 0 0
0 0 0
0.502598 0 0
0.457878 0.12077 0
0.308443 0.485338 0
0.0857895 1 0
0 1 0
0 0 0
0.677071 0 0
1 0 0
1 0.111101 0
0.677071 0 0
0 0 0
0.14354 0 0
0 0.0958123 0
0 0 0
0 0 0
0.489442 0 0
0.277634 0.493497 0
0.0487527 1 0
0 1 0
0 0 0
0 0 0
0.452504 0 0
0.127337 0.124622 0
0 0.170244 0
0 0 0
0 0 0
0.0881961 0 0
0 0.052929 0
0 0 0
0 0 0
0.460847 0 0
0.317834 0.4587 0
0.125593 1 0
0 1 0
0 0 0
0.896331 0 0
1 0 0
1 0.0192909 0
0.896331 0 0
0 0 0
0.131601 0 0
0 0.237821 0
0 0 0
0 0 0
0.501279 0 0
0.341761 0.466911 0
0.33636 0.481807 0
0.137488 1 0
0 1 0
0 0 0
0 0 0
0.13339 0 0
0 0.171413 0
0 0 0
0 0 0
0.131295 0 0
0 0.177823 0
0 0 0
0 0 0
0.699839 0 0
0.196916 0.664814 0
0 0.909319 0
0 0 0
0 0 0
1 0 0
1 1 0
0 1 0
0 0 0
0 0 0
1 0 0
1 1 0
0 1 0
0 0 0
0 0 0
1 0 0
1 1 0
0 1 0
0 0 0
0 0 0
0.090589 0 0
0.0551809 0.0202679 0
0 0.0467605 0
0 0 0
0.886731 0 0
1 0 0
1 0.0317234 0
0.886731 0 0
0.929339 0 0
1 0 0
1 0.0171073 0
0.929339 0 0
0 0 0
0.515612 0 0
0.342667 0.466934 0
0.336837 0.481815 0
0.122602 1 0
0 1 0
0 0 0
0 0 0
1 0 0
1 1 0
0 1 0
0 0 0
0.853155 0 0
1 0 0
1 0.0429649 0
0.853155 0 0
0 0 0
0.0652439 0 0
0 0.0411769 0
0 0 0
0 0 0
1 0 0
1 1 0
0 1 0
0 0 0
0 0 0
1 0 0
1 1 0
0 1 0
0 0 0
0.846397 0 0
1 0 0
1 0.0344543 0
0.846397 0 0
0 0 0
0.655162 0 0
0.654916 0.000409677 0
0.429469 0.367399 0
0.273155 0.607397 0
0.00838393 1 0
0 1 0
0 0 0
0 0 0
1 0 0
1 1 0
0 1 0
0 0 0
0 0 0
0.161863 0 0
0 0.250239 0
0 0 0
0 0 0
1 0 0
1 1 0
0 1 0
0 0 0
0 0 0
1 0 0
1 1 0
0 1 0
0 0 0
0 0 0
1 0 0
1 1 0
0 1 0
0 0 0
0.738381 0 0
1 0 0
1 0.0834566 0
0.738381 0 0
0 0 0
0.53143 0 0
0.354991 0.486356 0
0.147064 1 0
0 1 0
0 0 0
0 0 0
1 0 0
1 1 0
0 1 0
0 0 0
0 0 0
1 0 0
1 1 0
0 1 0
0 0 0
0 0 0
0.15607 0 0
0 0.211803 0
0 0 0
0 0 0
1 0 0
1 1 0
0 1 0
0 0 0
0 0 0
0.59391 0 0
0.302864 0.58136 0
0.084315 1 0
0 1 0
0 0 0
0 0 0
1 0 0
1 1 0
0 1 0
0 0 0
0.596869 0 0
1 0 0
1 0.239854 0
0.749058 0.0928213 0
0.596869 0 0
0 0 0
1 0 0
1 1 0
0 1 0
0 0 0
0 0 0
0.581437 0 0
0.42243 0.396527 0
0.151153 1 0
0 1 0
0 0 0
0 0 0
1 0 0
1 1 0
0 1 0
0 0 0
0 0 0
0.187308 0 0
0 0.280281 0
0 0 0
0 0 0
1 0 0
1 1 0
0 1 0
0 0 0
0 0 0
1 0 0
1 1 0
0 1 0
0 0 0
0 0 0
0.611092 0 0
0.300562 0.581401 0
0.0678256 1 0
0 1 0
0 0 0
0.6659 0 0
1 0 0
1 0.127865 0
0.993636 0.125512 0
0.6659 0 0
0 0 0
1 0 0
1 1 0
0 1 0
0 0 0
0 0 0
0.191783 0 0
0 0.323373 0
0 0 0
0 0 0
0.596868 0 0
0.425855 0.398198 0
0.137219 1 0
0 1 0
0 0 0
0 0 0
1 0 0
1 1 0
0 1 0
0 0 0
0.855182 0.106066 0
0.622814 0 0
1 0 0
1 0.16703 0
0.855182 0.106066 0
0 0 0
1 0 0
1 1 0
0 1 0
0 0 0
0 0 0
1 0 0
1 1 0
0 1 0
0 0 0
0 0 0
0.585521 0 0
0.235103 0.61155 0
0 0.99167 0
0 0 0
0 0 0
0.195939 0 0
0 0.316809 0
0 0 0
0 0 0
1 0 0
1 1 0
0 1 0
0 0 0
0.563272 0 0
1 0 0
1 0.269999 0
0.739179 0.113701 0
0.704426 0.0920342 0
0.563272 0 0
0 0 0
1 0 0
1 1 0
0 1 0
0 0 0
0 0 0
1 0 0
1 1 0
0 1 0
0 0 0
0 0 0
0.541871 0 0
0.378852 0.402507 0
0.106552 1 0
0 1 0
0 0 0
0 0 0
0.139308 0 0
0 0.0826426 0
0 0 0
0.520198 0 0
1 0 0
1 0.375498 0
0.520198 0 0
0 0 0
1 0 0
1 1 0
0 1 0
0 0 0
0 0 0
0.486262 0 0
0.340431 0.466878 0
0.335467 0.481792 0
0.152239 1 0
0 1 0
0 0 0
0 0 0
1 0 0
1 1 0
0 1 0
0 0 0
0 0 0
1 0 0
1 1 0
0 1 0
0 0 0
0 0 0
1 0 0
1 1 0
0 1 0
0 0 0
0 0 0
0.102082 0 0
0.0640907 0.0247674 0
0 0.059902 0
0 0 0
0.789344 0.106132 0
0.600962 0 0
1 0 0
1 0.215223 0
0.789344 0.106132 0
0 0 0
1 0 0
1 1 0
0 1 0
0 0 0
0 0 0
0.647383 0 0
0.603299 0.0677051 0
0 0.951161 0
0 0 0
0 0 0
1 0 0
1 1 0
0 1 0
0 0 0
0 0 0
0.132699 0 0
0 0.0694071 0
0 0 0
0 0 0
1 0 0
1 1 0
0 1 0
0 0 0
0.760863 0 0
1 0 0
1 0.0330994 0
0.760863 0 0
0 0 0
1 0 0
1 1 0
0 1 0
0 0 0
0 0 0
0.595509 0 0
[...]
CELL_DATA 6352
FIELD FieldData 3
weight 1 6352 float
 0.715588 0.715534 0.728067 0.727914 0.702997 0.715772 0.95297 0.72179 0.703047 0.721804 0.953266 0.728106 0.709417 0.959625 0.722024 0.715626 0.72818 0.715486 0.72816 0.709449 0.709412 0.959547 0.709312 0.703146 0.715594 0.95331 0.709333 0.715533 0.703111 0.959381 0.709279 0.703187 0.953349 0.715382 0.715613 0.709358 0.709589 0.703109 0.953242 0.715641 0.959233 0.715502 0.721653 0.721932 0.72176 0.721657 0.72188 0.959592 0.715844 0.728217 0.721732 0.965593 0.72804 0.728314 0.728257 0.721819 0.965622 0.722027 0.728334 0.728206 0.728176 0.71586 0.965695 0.734539 0.734546 0.971633 0.965728 0.965861 0.953003 0.740653 0.953365 0.740721 0.953255 0.971718 0.746696 0.959423 0.965436 0.746824 0.965495 0.977934 0.959325 0.734393 0.959413 0.953163 0.971928 0.734338 0.953258 0.740426 0.959551 0.959413 0.977977 0.734277 0.721665 0.978102 0.746861 0.7408 0.721967 0.971772 0.74064 0.728118 0.753293 0.752893 0.97211 0.727996 0.747 0.759199 0.728169 0.759498 0.978181 0.759598 0.747059 0.709138 0.753077 0.978294 0.759184 0.702916 0.753253 0.952897 0.715427 0.759212 0.953092 0.709565 0.753304 0.959232 0.709592 0.73415 0.959184 0.734259 0.734386 0.959419 0.965581 0.971951 0.972063 0.740569 0.703151 0.703237 0.95298 0.972058 0.709131 0.740726 0.978308 0.978243 0.709471 0.953148 0.977884 0.740708 0.965717 0.971849 0.965748 0.715793 0.953102 0.971909 0.978139 0.734398 0.977937 0.96553 0.953079 0.721644 0.952929 0.965469 0.959197 0.734364 0.959159 0.953102 0.959281 0.715689 0.953158 0.74054 0.959354 0.953101 0.721998 0.959167 0.965541 0.971675 0.740867 0.959558 0.728282 0.959413 0.965746 0.971814 0.7531 0.72803 0.965743 0.96582 0.971828 0.978254 0.972118 0.746945 0.728231 0.978299 0.965867 0.977896 0.747019 0.965849 0.721791 0.971842 0.977918 0.965627 0.759349 0.715688 0.97183 0.972114 0.715616 0.753192 0.977915 0.722035 0.75921 0.728316 0.978246 0.747 0.971969 0.728203 0.978038 0.984486 0.753127 0.98428 0.722082 0.990718 0.99047 0.971693 0.990496 0.752955 0.984323 0.984251 0.734283 0.984416 0.99057 0.746865 0.996746 0.965811 0.990563 0.996991 0.734213 0.746969 0.972026 0.997086 1.00333 1.00937 0.978174 0.753229 1.00337 0.734145 1.00937 0.978344 1.00326 0.759141 0.997105 1.00325 0.997049 0.978161 1.00337 0.759569 1.00962 0.740411 1.0095 0.984348 1.0092 0.740491 0.984194 0.984515 0.759316 0.990459 0.709195 0.984294 0.990477 0.703281 0.98432 0.996857 0.990676 0.703265 0.984602 0.98421 0.996739 0.70943 0.990809 0.996814 0.990607 0.715601 1.00303 0.996989 1.00312 0.71557 1.00924 1.00934 1.00955 0.703189 1.00328 0.996889 1.00292 0.702977 1.00336 1.00953 1.00943 0.703325 0.953113 0.952974 0.959299 0.709409 0.959127 0.952904 0.953275 0.709486 0.953299 0.959552 0.959596 0.715503 0.959345 0.965682 0.96582 0.709548 0.97164 0.965663 0.971935 0.72176 0.978086 0.978049 0.972025 0.721915 0.965844 0.734428 0.715858 0.72817 0.99047 0.722105 0.728311 0.971805 0.728144 0.734539 0.965805 0.971896 0.98458 0.721905 0.978229 0.978124 0.990504 0.978139 0.740708 0.715717 0.953166 0.996705 0.953091 0.953157 0.721683 0.740874 0.996693 0.959272 0.728155 0.959543 0.959526 0.740729 0.990538 0.728012 0.965391 0.959149 0.95293 0.702908 0.746993 0.953131 0.703205 0.984243 0.965558 0.753136 0.959501 0.990384 0.971715 0.709126 0.965672 0.965851 0.978342 0.746832 0.709308 0.972034 0.978111 0.753031 0.984506 0.978039 0.715466 0.972048 0.97175 0.965671 0.715411 0.759466 0.978015 0.971928 0.703316 0.990527 0.978144 0.753375 0.984167 0.703122 0.990412 0.996706 0.984541 0.702957 0.99074 0.759458 0.996741 0.715429 0.990749 1.00334 0.996812 0.984577 0.709329 0.984237 0.74694 0.984219 0.997112 0.70921 0.990736 0.747061 1.00315 0.996812 0.990681 0.715412 1.00948 0.747026 0.996962 1.00308 1.00317 0.709495 1.00289 0.752889 1.00959 1.0094 0.721653 1.00932 0.997059 1.00317 0.715839 1.00946 0.728323 1.0029 1.00293 1.00932 0.728255 1.00956 0.75297 1.0096 0.722123 0.984383 1.00303 0.984425 0.990504 0.721858 0.99072 0.990456 0.75923 0.721749 0.990428 0.984301 0.997041 0.984221 0.984554 0.996728 0.722007 0.759433 0.990554 1.00313 0.996861 0.996922 0.728299 0.75932 1.00311 1.00922 1.00307 0.728086 1.00923 1.00316 1.00929 0.734371 0.728078 1.00941 0.997044 1.00914 0.996833 0.734468 1.00925 0.740379 1.00922 0.984266 0.740424 1.00318 1.00323 0.990418 1.01556 0.734383 0.734167 1.01569 1.02192 1.02803 1.02198 0.984512 0.746631 0.73443 1.01546 1.01538 0.740723 1.01565 0.990668 0.74075 1.02196 1.02211 1.02797 0.746729 1.02799 1.02179 0.740515 1.02824 0.740646 1.03431 0.996703 1.03441 0.734559 0.734244 0.734323 0.740717 0.746765 0.746706 0.74082 0.746916 0.759577 0.753303 0.753265 0.753365 0.759215 0.753311 0.753072 0.759136 0.759317 0.759422 0.734127 0.734387 0.740624 0.746808 0.740585 0.746727 1.02825 0.996653 0.734207 1.04059 1.03456 1.0404 0.740483 1.0407 1.03413 0.734409 1.03449 0.984255 0.734422 1.04073 1.04067 1.01576 0.740457 1.02171 0.734483 0.984589 1.02169 1.01566 0.746791 1.01587 0.734336 1.02163 0.98415 1.02809 0.740773 1.01555 1.02163 1.02171 0.740782 1.01561 0.746816 1.028 1.03432 0.74664 1.02824 0.990445 1.03416 1.02822 1.03428 0.74701 1.04059 1.04074 0.746846 0.996769 1.04075 0.752882 1.02832 0.990499 1.03452 1.03452 0.740858 1.04038 0.753344 1.04076 0.990739 1.04676 0.746939 1.04688 0.759295 1.05291 1.04683 1.05931 0.759218 0.753014 1.05326 1.00307 1.05325 0.753083 1.04703 0.747049 1.04708 1.05321 0.752928 1.05337 1.00322 1.06545 0.759145 1.06572 0.747101 1.05954 1.06557 1.0719 0.753065 1.07169 0.759546 1.05956 1.05939 1.06539 0.759504 1.00938 1.05949 1.07185 0.753359 1.07181 0.759269 1.07163 1.06568 1.04682 1.0094 1.04709 0.753265 0.759338 1.05303 1.05926 1.05326 0.75329 1.05313 1.05932 0.765641 1.04701 1.04682 0.752982 1.05297 1.0092 0.76543 1.04674 0.759255 1.05915 0.996958 1.05336 0.759188 0.778037 1.05925 1.06567 0.759372 1.00302 1.05956 0.771865 1.07164 1.06581 1.00305 1.07189 0.771928 0.703272 1.06552 1.06586 1.06587 0.997095 0.703154 1.07191 0.777948 1.07187 0.709352 1.00308 1.07188 1.01585 0.771845 0.709201 1.0093 1.01566 1.02197 0.703279 1.02796 0.765788 1.02202 1.00937 1.02183 0.703258 1.02794 1.01565 0.765784 0.702941 1.01571 0.953069 1.02183 0.765404 0.709213 1.01585 1.02165 0.77172 0.709349 1.02799 0.953088 1.02794 1.02809 0.777934 1.03449 0.709283 1.03437 1.04081 0.778035 0.721748 0.959586 1.04053 1.0344 0.715682 1.03451 0.772112 1.03418 0.959415 1.04072 0.721826 1.04067 0.784217 1.04087 1.01586 0.71563 1.01548 0.778217 0.715778 1.02181 0.959507 1.0217 1.01559 0.784262 0.72791 1.01561 0.953118 1.01573 0.721992 0.790777 1.02201 0.953196 0.728134 1.028 1.0221 0.784592 0.952886 0.728254 0.790814 1.02799 0.715875 0.790808 1.02195 1.03413 0.965529 1.02819 0.715605 1.02826 0.784181 1.03434 0.722075 1.04065 0.965551 1.04048 0.784239 0.728246 1.02808 1.03413 0.728008 0.790586 1.03433 0.959503 0.790676 1.0406 0.72199 1.04044 0.765396 0.709156 1.03458 0.765668 0.959354 0.703287 0.772018 0.965825 0.703285 0.778077 1.04058 0.971957 1.04693 1.04703 0.709219 1.05917 1.05927 0.772036 1.05328 1.05315 0.965816 1.05314 0.709167 1.04669 0.77177 1.04695 0.971934 1.04663 0.715438 1.05323 0.765731 1.05335 0.715592 1.05942 1.06548 0.977894 1.07206 1.0658 1.06582 0.703159 0.76563 0.978323 1.07209 0.703316 1.07163 1.06559 0.765489 1.0595 0.703106 1.0594 0.777886 0.971976 1.06553 1.07178 0.709326 1.07207 0.771866 1.05301 1.04688 0.70938 1.05288 0.971986 1.04705 0.778058 0.715564 0.965852 1.05923 0.771838 0.721861 0.971762 1.05333 0.778237 0.721976 1.04667 0.978274 0.784204 0.722051 1.04686 0.78432 0.978029 0.79084 0.72796 0.978334 1.04697 0.727876 0.790644 0.952979 0.727929 0.952994 1.05933 0.790807 0.715866 0.78446 1.05311 0.72193 0.784386 0.778239 0.71587 0.784261 0.959593 1.05933 0.728255 0.959477 0.79082 0.965434 0.953298 0.728221 1.05333 0.953245 0.790744 1.06567 0.959215 0.722067 0.953007 1.05955 0.965494 0.796693 0.959508 0.734212 1.06543 0.965439 0.796775 0.959596 0.734333 1.06559 0.796956 0.971903 0.734473 0.802985 1.05957 0.96584 0.740663 0.971647 0.802879 0.971925 1.07196 0.740687 0.802957 0.977897 1.07182 0.978055 0.740766 0.796885 1.072 0.978138 0.734419 0.965721 0.796673 0.971753 1.06577 0.971947 0.977943 0.734196 0.803263 0.978001 0.746747 0.809178 1.06547 0.740851 0.803042 0.984305 1.07166 0.809388 0.74668 0.984361 0.809479 0.740718 1.07188 0.990715 0.953341 0.746698 0.953341 0.815853 0.959315 0.990752 0.959615 0.965434 0.821742 0.965511 0.752985 0.959528 0.815668 0.953117 0.98414 0.953245 0.746858 0.815636 0.984473 0.746821 0.952953 0.984289 0.959151 0.821662 0.753136 0.959603 0.990765 0.971664 0.821718 0.972014 0.759423 0.965765 0.971844 0.990638 0.809537 0.978321 0.75915 0.978354 0.996725 0.97169 0.809334 0.965808 0.753364 0.996695 0.965771 0.75321 0.978118 0.81564 0.990843 0.978203 0.752941 0.821771 0.972051 0.996876 0.815855 0.759303 0.978071 0.821937 1.00303 0.75919 0.796702 0.953271 0.759308 0.796829 0.997084 0.953263 0.734539 0.797004 1.00327 0.73452 1.0092 1.00925 0.740561 0.997095 0.740651 1.00288 0.740729 0.746681 1.00309 0.734149 1.0031 0.734481 1.00918 0.734429 1.0095 0.740742 1.00932 0.740807 0.984487 0.753103 0.984429 0.984276 0.746911 0.996766 0.752891 0.990732 0.747042 0.996858 0.759558 0.990819 0.759545 0.747014 0.990598 0.99057 0.984352 0.753072 0.990592 0.984405 0.747092 0.952934 0.759172 0.753348 0.803165 0.803032 0.809217 0.803111 0.796631 0.796979 0.803045 0.809186 0.80324 0.809472 0.809516 0.815535 0.821683 0.815771 0.821756 0.815867 0.809408 0.815705 0.821936 0.815833 0.821811 0.822058 0.996707 0.765751 0.765653 0.765496 0.759183 0.996785 0.77169 0.996856 0.772036 0.959469 0.759584 1.00333 0.772038 1.00303 0.959517 0.753306 0.77792 1.00947 0.765776 1.00935 0.765856 0.771674 0.959204 1.00303 1.0032 0.765544 0.765624 0.965436 1.0033 0.777982 1.00937 0.771907 0.953052 1.00927 1.00962 0.77791 0.77164 0.953091 1.01583 0.778165 0.771895 1.01558 0.784459 0.959549 0.765393 0.790695 1.01566 0.959427 0.784432 0.765865 1.02199 0.765667 0.965779 0.790449 1.02175 0.772076 0.971892 0.778166 1.02788 0.772053 0.971974 1.02198 0.78421 0.772003 0.977911 1.01562 0.784475 0.777988 1.01586 0.790568 1.0217 0.972024 0.778352 0.790412 1.02811 1.02202 0.978215 0.784418 0.78449 1.02809 0.965598 0.778322 0.79043 1.03448 0.784255 0.77163 1.02828 0.965675 0.765863 1.03413 0.971835 0.778255 0.765469 1.0283 0.790874 0.971772 1.03436 0.777945 0.790726 1.04049 0.778368 0.772005 1.04041 0.965756 0.784477 1.04082 0.765799 0.78431 0.978126 1.03424 0.76543 0.977935 1.03449 0.765844 0.784257 1.04086 0.771671 1.0407 0.771856 0.790489 0.978089 0.777882 0.98433 0.790518 1.01549 0.98446 0.771712 0.984175 0.790695 0.99066 0.996692 0.778222 0.765429 1.02165 0.990828 0.78436 0.990771 0.765729 1.01547 0.790616 0.765558 0.984601 1.02173 0.777984 0.784516 0.984621 0.772009 0.790584 0.990389 1.01561 0.778175 0.772081 0.996645 0.771743 0.778229 0.990813 1.02798 0.765794 1.00304 0.784246 1.02812 0.765806 1.00306 0.784488 0.997017 1.00925 0.777895 0.790672 1.02212 0.772119 1.00333 0.790638 1.02788 0.77197 1.00925 0.784587 0.77822 1.01574 0.996906 0.79084 0.784208 1.02172 0.997109 0.784156 0.797016 1.01582 1.00316 0.796776 0.790565 1.00331 0.809219 1.02805 1.00957 0.803013 0.790464 1.00933 1.02201 0.803165 0.79044 1.00924 0.809236 0.784241 1.03444 0.984262 0.803317 0.778252 1.0346 0.984168 0.796998 0.778155 1.04068 0.796784 0.990431 0.784163 1.04051 0.796898 0.990536 0.790497 1.03445 0.80915 0.984247 0.78451 1.03419 0.803106 0.790679 0.984245 1.03455 0.80303 0.79692 0.984322 0.809571 1.02833 0.802927 0.990784 1.04077 0.821679 0.797085 1.04078 0.990751 0.815722 0.796685 0.821651 0.99665 1.0407 0.815843 0.990541 1.05289 0.821637 0.80926 0.997091 1.04678 0.815406 0.803038 1.04701 0.796682 0.809499 0.996981 1.04664 0.796851 1.00324 0.815559 1.05334 0.803278 1.00295 0.815791 0.803296 0.996996 1.05336 0.821805 1.00923 1.0592 0.809215 0.821801 1.0033 1.05914 0.796784 1.00914 0.797097 0.803149 1.04664 1.00954 0.796941 0.809235 1.04684 0.997121 1.05292 0.80925 0.809224 1.05335 1.00335 0.80314 0.815395 1.05925 1.00915 0.80331 0.815566 1.00337 1.05942 0.796625 1.0096 0.796921 0.809496 0.959268 1.06541 0.802998 1.07202 0.821744 0.953043 0.809189 1.06585 0.82208 0.803344 0.953016 0.815675 1.07205 0.803124 0.953243 1.06587 0.809622 0.815726 0.959255 1.0595 0.815673 0.815579 0.809437 1.0657 0.821786 0.965592 0.815875 0.965426 1.07195 0.821691 0.821893 0.959233 0.815814 1.06582 0.953362 0.821923 0.822122 1.07167 0.959197 0.797009 0.822089 1.07166 0.953346 0.809562 0.797116 1.04703 0.815535 0.95962 1.0529 0.81576 0.803034 1.04699 0.965571 0.821843 0.803218 0.965514 1.04677 0.821719 0.803336 1.05914 0.971898 0.70292 1.05919 0.971765 0.702949 0.796839 1.0532 0.709434 0.978021 0.796655 0.709464 1.04697 0.97833 0.796955 0.971965 0.971871 0.802905 1.0467 0.709151 0.96578 1.05305 0.802976 0.703065 0.978175 0.703332 1.05315 0.809166 0.978329 0.702966 1.05295 0.809352 0.972088 0.709227 1.06559 0.809623 0.709287 1.0656 0.815438 0.978057 1.05942 0.715691 0.809424 0.952978 1.07183 0.715708 0.821834 0.721851 1.06576 0.953278 0.815849 0.722091 1.07175 0.959447 0.822015 0.728339 1.07205 0.815485 0.728232 0.965504 0.81542 0.721894 1.06578 0.715747 0.815498 1.05953 0.715832 0.95939 0.809568 1.05962 0.715631 0.822009 1.06542 0.721986 0.953173 0.821995 1.07175 0.727902 0.822016 0.953038 0.727893 1.07207 0.765855 0.728272 0.722094 1.01556 0.765793 0.953178 0.703266 1.02163 0.959526 0.771677 0.702978 0.965441 1.01545 0.715572 0.765568 1.02184 0.771835 0.709355 0.959412 1.02811 0.709409 0.777941 0.71546 0.959319 1.02807 0.702939 0.777999 0.96539 0.702917 1.01581 0.771838 0.965759 0.703049 0.765637 1.01574 0.709449 0.971871 0.771731 0.709463 1.01539 0.76555 0.709325 1.02212 0.778033 0.971717 0.721829 1.02169 0.72181 0.771915 1.02208 0.721875 0.978209 0.784134 1.03416 0.727936 0.784145 0.728061 1.03444 0.978111 0.784326 0.778248 1.04045 0.727882 0.971752 0.790756 1.04084 0.71587 0.971646 0.790744 1.02814 0.721837 0.7843 1.02827 0.965638 0.778205 0.715795 1.0344 0.784436 0.978085 0.715851 1.02826 0.790639 0.97815 0.722026 1.03456 0.790768 0.72814 0.790819 1.04085 0.971942 0.728299 0.765633 1.04054 0.734127 0.765739 1.03454 0.978007 0.777905 1.04062 0.734561 0.771933 0.984457 1.01559 0.77201 0.734209 0.98461 1.01567 0.740441 0.765453 0.984135 0.740586 0.765866 0.740575 1.01585 0.996728 0.765862 0.746789 0.771885 1.02209 0.990509 0.746649 0.772001 1.02173 0.734611 0.990768 0.772036 0.7344 1.02205 0.990526 0.740868 0.778292 1.01568 0.984528 0.746725 0.784495 0.984447 1.02171 0.740697 0.778319 1.01549 0.753297 0.784446 0.990501 1.02192 0.752881 0.784136 1.02795 0.7471 0.790628 1.02807 0.990642 0.75291 0.790823 1.03428 0.759569 0.790511 1.02821 1.00297 0.784167 0.759595 1.02818 0.77822 0.996923 0.747002 0.778302 1.00922 1.03439 0.753221 0.784387 1.00333 0.753249 1.03449 0.79053 1.00918 0.759601 0.790864 1.00926 1.04077 0.79705 0.759244 1.04062 0.796869 0.997042 0.796638 0.759618 1.0406 0.802993 0.996968 1.03416 0.734325 1.02837 0.803317 1.00298 0.734199 1.04081 0.809212 1.04055 0.734156 0.996922 0.809292 1.03461 0.746736 1.00334 0.740658 0.802992 1.04677 1.00326 0.740522 0.796871 1.04682 0.746686 0.802955 1.0093 0.734178 1.05932 0.797023 0.734372 0.809292 0.746708 1.05337 1.00955 0.803163 0.740621 1.05309 0.81558 0.746764 0.984468 1.05325 0.815437 0.740771 1.04673 0.809422 0.740554 0.984197 1.04704 0.822074 0.753278 0.984354 1.04699 0.753038 0.990727 0.822008 1.05916 0.752924 1.05304 0.759315 0.815756 1.05332 0.990577 0.759226 0.821724 1.06546 0.759388 0.996771 0.809379 0.753075 1.05962 0.99681 0.81584 0.747053 0.990634 1.06565 0.82187 0.753327 0.984515 1.0655 0.821816 0.759343 0.984433 1.05946 0.815661 0.759602 0.990862 0.796928 0.990454 0.796949 1.07174 0.702883 0.797118 0.703234 1.07164 1.00295 0.803304 0.709502 1.00299 1.07189 0.809296 0.709147 1.00297 0.803351 1.06571 0.709364 0.996958 0.797108 1.06571 1.00922 0.802932 1.05961 0.796836 0.709356 1.07182 1.00942 0.803089 0.709463 0.809143 1.07209 1.00959 0.715779 0.803331 1.04698 0.997034 0.721677 1.04676 0.715779 0.815537 1.00316 0.721689 0.809444 1.04704 0.997102 0.715632 0.809615 1.00313 1.05317 0.728203 1.00934 0.815679 0.722029 1.05324 1.00926 0.728002 0.815555 1.05914 1.01574 0.715573 1.05306 0.822012 1.01578 1.05918 0.715839 0.821668 1.01574 1.04685 0.80947 0.721655 1.04668 1.02792 0.815454 0.727927 1.05915 1.02211 0.821695 1.05296 1.0221 0.821684 0.728108 1.05917 1.02791 0.815815 0.721866 1.05302 1.02803 0.728029 1.06564 0.821937 1.01586 0.703065 1.05956 0.703313 1.01555 0.702902 1.06542 0.709177 1.02168 1.07195 0.715524 0.703032 1.07197 1.02816 0.709534 0.703001 1.07185 1.02194 0.709466 0.709407 1.06565 0.715585 1.02207 1.06576 0.709417 0.709308 1.02789 0.703004 1.03439 0.703239 1.06587 1.03461 0.703151 1.07164 0.709276 1.03451 0.709342 1.04087 0.715469 1.07209 0.703292 0.709468 1.04042 0.952916 0.953043 0.703344 0.953258 0.959208 0.721666 0.959576 1.03432 0.953108 0.959215 0.715494 0.71571 0.952909 0.965565 1.03423 0.959553 0.727892 0.709371 0.965474 0.95947 1.0405 0.965813 0.728006 0.971878 0.96577 0.715409 0.722018 1.04038 0.965741 0.721818 0.971786 1.04059 0.721689 0.97833 0.977962 0.972074 0.715673 0.715834 0.971849 1.0154 0.971993 0.72167 0.978158 0.978247 0.97796 1.02171 0.721787 0.715672 0.95311 1.01553 0.721884 0.952903 0.721671 1.01557 0.952981 0.96538 0.728218 0.959444 1.02799 0.728036 0.95961 1.02809 0.959369 0.952881 0.728143 0.727908 1.02176 0.959135 0.728308 0.953183 0.728328 1.01551 0.965399 0.959142 0.702996 0.96563 0.971698 1.02173 0.971937 0.703147 0.721658 0.978228 0.972097 1.01558 0.703346 0.978236 0.971907 0.965721 0.715789 0.709264 0.965789 1.02207 0.971752 0.977928 0.977954 0.70948 0.978223 0.721947 0.98416 1.02802 0.984157 0.715582 0.984596 0.99083 1.02203 0.727947 0.70936 0.990821 0.990516 1.03448 1.03438 1.02826 0.728303 0.703058 1.03452 0.709376 1.04055 0.98442 0.734489 0.715465 1.04068 0.984285 0.734168 0.990844 1.04071 0.990563 0.740448 0.709304 1.02834 0.996835 0.997065 1.03427 0.740469 1.00317 0.721947 0.997065 0.997027 1.00314 0.715707 1.00293 1.0343 1.00952 0.734543 1.00925 0.715834 1.0094 1.0408 1.00293 0.996883 0.721633 0.746859 1.00301 1.04063 1.00918 0.728213 0.746643 1.00947 1.04691 0.990391 0.728318 0.984579 0.98433 0.984279 0.734325 0.721713 1.04672 0.715867 0.734165 0.996708 0.728 1.05913 0.990842 0.990589 0.740644 0.996674 0.727893 0.984323 1.05302 0.990566 0.984283 0.740757 0.728011 1.05322 0.996877 0.990709 0.740772 0.722069 1.05301 1.00304 1.00301 0.746669 0.722021 1.0033 1.05921 1.00941 1.00926 0.996962 0.734225 1.04667 1.00304 0.747028 0.997 0.734137 1.05298 1.0096 1.00336 0.734584 0.753242 1.04706 1.00932 1.00952 0.740701 0.953261 0.95931 1.04671 0.953268 0.965453 0.740527 0.752929 0.959522 1.05915 0.959402 0.740625 0.953209 0.953267 0.759321 1.05936 0.953208 0.746628 0.959523 0.959536 0.753293 0.734146 1.05333 0.965449 0.759553 0.965609 1.05934 0.971765 0.734447 0.753011 0.965838 0.971846 0.978282 1.06539 0.740581 0.753021 0.978124 0.972003 1.06562 0.740463 0.965792 0.747065 0.971956 1.07187 0.759409 0.747004 0.971696 0.75934 0.977883 1.07211 0.753024 0.978291 0.978147 1.06568 0.959242 0.746897 0.759167 0.953246 0.759415 0.953137 1.06553 0.965446 0.95945 0.734292 0.95298 1.06582 0.753164 0.953253 1.07194 0.952876 0.959498 0.734152 0.965554 0.759263 0.96539 0.959323 1.07199 0.959476 0.759401 0.746676 0.971809 1.07163 0.971824 0.965705 1.04664 0.978213 0.747074 0.978287 0.740532 0.977965 0.971808 1.0468 0.971648 0.753149 0.96584 0.971991 0.977988 0.740745 0.978003 1.05917 1.05306 0.984156 0.753079 0.984465 0.746684 0.984324 1.0593 0.990755 0.746972 0.990794 0.990472 1.05333 0.734149 0.996757 0.753362 0.990473 0.984279 1.04684 0.990438 0.984536 0.75962 0.740392 1.04665 0.996827 0.759429 0.996673 0.996765 0.734589 0.734342 1.0468 0.996965 1.0029 1.00307 0.734129 1.05305 1.00312 0.734523 1.00959 1.00957 1.05308 0.734454 1.00324 0.740793 1.0031 0.740716 1.00958 1.0529 1.00917 0.740415 0.746785 1.0094 1.06542 0.990453 0.984263 0.740656 0.984322 0.984378 1.0596 0.990396 0.734278 0.740587 0.9