# vtk DataFile Version 3.0
vtk output
ASCII
DATASET UNSTRUCTURED_GRID
POINTS 44490 float
0 0 0
0.0166073 0 0
0.0157402 0.0079142 0
0.0133059 0.00978185 0
0 0.0070567 0
0 0 0
0.0157402 0.0079142 0
0.0166073 0 0
0.0320058 0 0
0.0259885 0.0121151 0
0.0157402 0.0079142 0
0 0.0070567 0
0.0133059 0.00978185 0
0.0116942 0.0197961 0
0 0.0185099 0
0 0.0070567 0
0 0.0185099 0
0.0116942 0.0197961 0
0.011846 0.0200446 0
0.0112483 0.0308562 0
0.0107342 0.0312942 0
0 0.0307049 0
0 0.0185099 0
0.0116942 0.0197961 0
0.0133059 0.00978185 0
0.0157402 0.0079142 0
0.0259885 0.0121151 0
0.0264584 0.0131685 0
0.0231912 0.0207997 0
0.011846 0.0200446 0
0.0116942 0.0197961 0
0.54327 0.498707 0
0.549646 0.505148 0
0.547917 0.511484 0
0.540889 0.514609 0
0.532173 0.509906 0
0.531835 0.508751 0
0.540742 0.498763 0
0.54327 0.498707 0
0.0112483 0.0308562 0
0.011846 0.0200446 0
0.0231912 0.0207997 0
0.0255529 0.0269904 0
0.0199969 0.0321004 0
0.0112483 0.0308562 0
0.549646 0.505148 0
0.556763 0.50291 0
0.563516 0.507739 0
0.560598 0.518917 0
0.555504 0.519159 0
0.547917 0.511484 0
0.549646 0.505148 0
0.0231912 0.0207997 0
0.0264584 0.0131685 0
0.0354884 0.0163424 0
0.0339768 0.0280514 0
0.0328405 0.0284916 0
0.0255529 0.0269904 0
0.0231912 0.0207997 0
0.528383 0.0131402 0
0.522745 0.00907406 0
0.523162 0 0
0.535515 0 0
0.535607 0.00734055 0
0.528383 0.0131402 0
0.0262578 0.515055 0
0.0307295 0.503676 0
0.037108 0.504191 0
0.0413523 0.5121 0
0.0320893 0.519174 0
0.0262578 0.515055 0
0.0264584 0.0131685 0
0.0259885 0.0121151 0
0.0320058 0 0
0.0359457 0 0
0.0390998 0.0144052 0
0.0354884 0.0163424 0
0.0264584 0.0131685 0
0.525713 0.520484 0
0.532173 0.509906 0
0.540889 0.514609 0
0.539741 0.524542 0
0.534297 0.527619 0
0.526595 0.523004 0
0.525713 0.520484 0
0.0359457 0 0
0.0472373 0 0
0.0470274 0.0126316 0
0.0430842 0.0150417 0
0.0390998 0.0144052 0
0.0359457 0 0
0 0.516122 0
0.00634895 0.516037 0
0.0119736 0.52337 0
0.00504052 0.531655 0
0 0.53153 0
0 0.516122 0
0.502322 0.0170229 0
0.502397 0.0168631 0
0.512833 0.0142747 0
0.516338 0.0225883 0
0.515473 0.026077 0
0.506081 0.0294363 0
0.504547 0.0280828 0
0.502322 0.0170229 0
0.540889 0.514609 0
0.547917 0.511484 0
0.555504 0.519159 0
0.549226 0.528803 0
0.539741 0.524542 0
0.540889 0.514609 0
0.0461055 0.0260197 0
0.0430842 0.0150417 0
0.0470274 0.0126316 0
0.0560067 0.0148254 0
0.0567297 0.0155981 0
0.052459 0.0275153 0
0.0461055 0.0260197 0
0.549226 0.528803 0
0.555504 0.519159 0
0.560598 0.518917 0
0.564032 0.521916 0
0.563368 0.532629 0
0.555355 0.535098 0
0.550165 0.531737 0
0.549226 0.528803 0
0.0470274 0.0126316 0
0.0472373 0 0
0.0582981 0 0
0.0560067 0.0148254 0
0.0470274 0.0126316 0
0.0560067 0.0148254 0
0.0582981 0 0
0.0635809 0 0
0.0677075 0.0130022 0
0.0626273 0.0164414 0
0.0567297 0.0155981 0
0.0560067 0.0148254 0
0.493885 0.534748 0
0.497692 0.53231 0
0.504516 0.533963 0
0.507546 0.546005 0
0.502815 0.549209 0
0.494083 0.545944 0
0.493885 0.534748 0
0.0400472 0.0299864 0
0.0461055 0.0260197 0
0.052459 0.0275153 0
0.0550234 0.0308337 0
0.0483026 0.0401363 0
0.0457118 0.0403648 0
0.0435487 0.0391572 0
0.0400472 0.0299864 0
0.504516 0.533963 0
0.511162 0.529479 0
0.518969 0.533187 0
0.520187 0.536182 0
0.511932 0.546666 0
0.507546 0.546005 0
0.504516 0.533963 0
0.0354884 0.0163424 0
0.0390998 0.0144052 0
0.0430842 0.0150417 0
0.0461055 0.0260197 0
0.0400472 0.0299864 0
0.0339768 0.0280514 0
0.0354884 0.0163424 0
0.534297 0.527619 0
0.534085 0.537447 0
0.527874 0.540062 0
0.520187 0.536182 0
0.518969 0.533187 0
0.526595 0.523004 0
0.534297 0.527619 0
0.052459 0.0275153 0
0.0567297 0.0155981 0
0.0626273 0.0164414 0
0.0658927 0.0261079 0
0.0573106 0.0312323 0
0.0550234 0.0308337 0
0.052459 0.0275153 0
0.511932 0.546666 0
0.520187 0.536182 0
0.527874 0.540062 0
0.526268 0.551615 0
0.516759 0.55242 0
0.511932 0.546666 0
0 0.0307049 0
0.0107342 0.0312942 0
0.00955025 0.0438237 0
0 0.0449633 0
0 0.0307049 0
0.0222406 0.0558339 0
0.0174923 0.0440748 0
0.0225373 0.0407001 0
0.0295516 0.0426496 0
0.0306799 0.0439364 0
0.0310008 0.0472954 0
0.0253537 0.0566271 0
0.0222406 0.0558339 0
0.50235 0.559104 0
0.502815 0.549209 0
0.507546 0.546005 0
0.511932 0.546666 0
0.516759 0.55242 0
0.513285 0.560923 0
0.508177 0.562467 0
0.50235 0.559104 0
0.00504052 0.531655 0
0.0119736 0.52337 0
0.0175299 0.523777 0
0.0201736 0.527641 0
0.0128545 0.539592 0
0.0119513 0.539571 0
0.00504052 0.531655 0
0.0328405 0.0284916 0
0.0295516 0.0426496 0
0.0225373 0.0407001 0
0.0199969 0.0321004 0
0.0255529 0.0269904 0
0.0328405 0.0284916 0
0.516759 0.55242 0
0.526268 0.551615 0
0.529952 0.555013 0
0.524679 0.56658 0
0.521794 0.567033 0
0.513285 0.560923 0
0.516759 0.55242 0
0.516338 0.0225883 0
0.528996 0.0187225 0
0.532797 0.023362 0
0.532362 0.0268473 0
0.521931 0.032814 0
0.515473 0.026077 0
0.516338 0.0225883 0
0.539741 0.524542 0
0.549226 0.528803 0
0.550165 0.531737 0
0.539294 0.540555 0
0.534085 0.537447 0
0.534297 0.527619 0
0.539741 0.524542 0
0.0174923 0.0440748 0
0.00988817 0.0440843 0
0.00955025 0.0438237 0
0.0107342 0.0312942 0
0.0112483 0.0308562 0
0.0199969 0.0321004 0
0.0225373 0.0407001 0
0.0174923 0.0440748 0
0 0.0577441 0
0.0104158 0.0577161 0
0.0119932 0.0591001 0
0.0124746 0.0652436 0
0.00781528 0.0703442 0
0 0.0687879 0
0 0.0577441 0
0.563368 0.532629 0
0.568692 0.536325 0
0.566232 0.547384 0
0.561839 0.549139 0
0.555009 0.545897 0
0.555355 0.535098 0
0.563368 0.532629 0
0.513488 0.0129543 0
0.522745 0.00907406 0
0.528383 0.0131402 0
0.528996 0.0187225 0
0.516338 0.0225883 0
0.512833 0.0142747 0
0.513488 0.0129543 0
0.0175299 0.523777 0
0.0226175 0.515506 0
0.0262578 0.515055 0
0.0320893 0.519174 0
0.0329857 0.522778 0
0.0247355 0.529317 0
0.0201736 0.527641 0
0.0175299 0.523777 0
0 0.0449633 0
0.00955025 0.0438237 0
0.00988817 0.0440843 0
0.0104158 0.0577161 0
0 0.0577441 0
0 0.0449633 0
0.540537 0.543654 0
0.539294 0.540555 0
0.550165 0.531737 0
0.555355 0.535098 0
0.555009 0.545897 0
0.549501 0.548354 0
0.540537 0.543654 0
0.535607 0.00734055 0
0.535515 0 0
0.549295 0 0
0.550089 0.00805657 0
0.541552 0.0122888 0
0.535607 0.00734055 0
0.540537 0.543654 0
0.549501 0.548354 0
0.547804 0.558592 0
0.539653 0.560157 0
0.533245 0.555074 0
0.540537 0.543654 0
0.0119932 0.0591001 0
0.0222406 0.0558339 0
0.0253537 0.0566271 0
0.0273561 0.0606918 0
0.0266647 0.0649098 0
0.0207617 0.0679587 0
0.0124746 0.0652436 0
0.0119932 0.0591001 0
0.0247355 0.529317 0
0.0329857 0.522778 0
0.038174 0.526285 0
0.0334683 0.539978 0
0.0303077 0.540133 0
0.0285294 0.539245 0
0.0247355 0.529317 0
0.541552 0.0122888 0
0.550089 0.00805657 0
0.554043 0.0113947 0
0.554432 0.0205437 0
0.547197 0.0231661 0
0.541314 0.0196691 0
0.541552 0.0122888 0
0.0104158 0.0577161 0
0.00988817 0.0440843 0
0.0174923 0.0440748 0
0.0222406 0.0558339 0
0.0119932 0.0591001 0
0.0104158 0.0577161 0
0.527874 0.540062 0
0.534085 0.537447 0
0.539294 0.540555 0
0.540537 0.543654 0
0.533245 0.555074 0
0.529952 0.555013 0
0.526268 0.551615 0
0.527874 0.540062 0
0.528996 0.0187225 0
0.528383 0.0131402 0
0.535607 0.00734055 0
0.541552 0.0122888 0
0.541314 0.0196691 0
0.532797 0.023362 0
0.528996 0.0187225 0
0.0478434 0.519792 0
0.0437381 0.512897 0
0.0519277 0.504864 0
0.0582997 0.506867 0
0.0597024 0.510882 0
0.0529542 0.519771 0
0.0478434 0.519792 0
0.0328405 0.0284916 0
0.0339768 0.0280514 0
0.0400472 0.0299864 0
0.0435487 0.0391572 0
0.0306799 0.0439364 0
0.0295516 0.0426496 0
0.0328405 0.0284916 0
0.549295 0 0
0.564817 0 0
0.563968 0.00788146 0
0.554043 0.0113947 0
0.550089 0.00805657 0
0.549295 0 0
0.549501 0.548354 0
0.555009 0.545897 0
0.561839 0.549139 0
0.560491 0.55997 0
0.552078 0.562124 0
0.547804 0.558592 0
0.549501 0.548354 0
0.563968 0.00788146 0
0.568531 0.0129949 0
0.568586 0.0177128 0
0.556346 0.0216527 0
0.554432 0.0205437 0
0.554043 0.0113947 0
0.563968 0.00788146 0
0.0310008 0.0472954 0
0.0306799 0.0439364 0
0.0435487 0.0391572 0
0.0457118 0.0403648 0
0.0424018 0.055374 0
0.0310008 0.0472954 0
0.0480048 0.496937 0
0.0519277 0.504864 0
0.0437381 0.512897 0
0.0413523 0.5121 0
0.037108 0.504191 0
0.0426249 0.497053 0
0.0480048 0.496937 0
0.537366 0.0337462 0
0.532362 0.0268473 0
0.532797 0.023362 0
0.541314 0.0196691 0
0.547197 0.0231661 0
0.545994 0.0326257 0
0.537366 0.0337462 0
0.569852 0.506185 0
0.572353 0.497821 0
0.58119 0.496484 0
0.585693 0.501615 0
0.582757 0.510596 0
0.575909 0.511807 0
0.569852 0.506185 0
0.0550234 0.0308337 0
0.0573106 0.0312323 0
0.0646929 0.0417436 0
0.0633657 0.0434024 0
0.0541044 0.0453146 0
0.0483026 0.0401363 0
0.0550234 0.0308337 0
0.547197 0.0231661 0
0.554432 0.0205437 0
0.556346 0.0216527 0
0.559266 0.0308882 0
0.557156 0.0347777 0
0.550008 0.036301 0
0.545994 0.0326257 0
0.547197 0.0231661 0
0.0424018 0.055374 0
0.0457118 0.0403648 0
0.0483026 0.0401363 0
0.0541044 0.0453146 0
0.0524345 0.0553254 0
0.043112 0.057142 0
0.0424018 0.055374 0
0.563516 0.507739 0
0.569852 0.506185 0
0.575909 0.511807 0
0.572964 0.520638 0
0.564032 0.521916 0
0.560598 0.518917 0
0.563516 0.507739 0
0.048138 0.533116 0
0.0437631 0.526198 0
0.0478434 0.519792 0
0.0529542 0.519771 0
0.0583735 0.526346 0
0.0564263 0.532838 0
0.0535098 0.534686 0
0.048138 0.533116 0
0.0320893 0.519174 0
0.0413523 0.5121 0
0.0437381 0.512897 0
0.0478434 0.519792 0
0.0437631 0.526198 0
0.038174 0.526285 0
0.0329857 0.522778 0
0.0320893 0.519174 0
0.0529542 0.519771 0
0.0597024 0.510882 0
0.0655574 0.51338 0
0.068737 0.523324 0
0.0583735 0.526346 0
0.0529542 0.519771 0
0.068737 0.523324 0
0.0717792 0.52491 0
0.0691021 0.538763 0
0.0564263 0.532838 0
0.0583735 0.526346 0
0.068737 0.523324 0
0.00407027 0.548171 0
0.0119513 0.539571 0
0.0128545 0.539592 0
0.0177312 0.542838 0
0.0182349 0.552922 0
0.0104762 0.554319 0
0.00407027 0.548171 0
0 0.53153 0
0.00504052 0.531655 0
0.0119513 0.539571 0
0.00407027 0.548171 0
0 0.548206 0
0 0.53153 0
0.0285294 0.539245 0
0.0303077 0.540133 0
0.0275769 0.55353 0
0.0206148 0.554647 0
0.0182349 0.552922 0
0.0177312 0.542838 0
0.0285294 0.539245 0
0.0247355 0.529317 0
0.0285294 0.539245 0
0.0177312 0.542838 0
[...]
CELL_DATA 6400
FIELD FieldData 3
weight 1 6400 float
 0.0523604 0.0524604 0.0523836 0.0524184 0.0524746 0.0545885 0.0525079 0.054557 0.0525659 0.0544417 0.0525922 0.052548 0.0545449 0.0526121 0.052319 0.0545172 0.0545382 0.0527212 0.0544863 0.0527023 0.0527717 0.0544497 0.052732 0.0544691 0.0526507 0.0544874 0.0528023 0.0544302 0.0524506 0.0526293 0.0543672 0.0523574 0.0526046 0.0543456 0.0545326 0.0544804 0.0525385 0.0525263 0.0544127 0.0545033 0.0524687 0.0525041 0.0544379 0.0544387 0.0543826 0.0526322 0.052496 0.0544777 0.0525927 0.0544062 0.0544782 0.0527274 0.0526772 0.0544288 0.0543539 0.0544648 0.0527432 0.0527029 0.0545207 0.0545605 0.0528356 0.0545205 0.0528117 0.0545278 0.0526572 0.0525964 0.052775 0.0527475 0.0522726 0.0522453 0.052373 0.052396 0.0527219 0.0522269 0.0521572 0.0545697 0.0528615 0.0545225 0.0524228 0.0546116 0.0528973 0.0523145 0.0546092 0.054461 0.0528268 0.0545658 0.0544512 0.0525744 0.0528879 0.0529394 0.0544892 0.052548 0.0546548 0.0528812 0.0544722 0.0546514 0.0526686 0.0528554 0.0529973 0.0546568 0.0524937 0.0544935 0.052949 0.0546147 0.0523631 0.0545687 0.0530415 0.0543973 0.0525663 0.0530541 0.0545774 0.0543502 0.0531304 0.0546209 0.0528508 0.0544196 0.0530976 0.0546497 0.0543813 0.0531258 0.0528684 0.0544142 0.0546554 0.0532388 0.0529268 0.0544066 0.0543267 0.0532015 0.0544415 0.0529667 0.0529832 0.0543424 0.0544046 0.0530481 0.0528143 0.0542943 0.0543711 0.0530275 0.0542626 0.0529205 0.0545032 0.0543724 0.0529738 0.0544973 0.0543218 0.0530452 0.0531548 0.0544737 0.0542722 0.0543499 0.052965 0.0530354 0.0542945 0.0543872 0.0531255 0.0543347 0.0532109 0.0542503 0.0531273 0.0543145 0.0530213 0.0531841 0.0543569 0.0542898 0.0544623 0.0531771 0.0532185 0.0544405 0.0542887 0.0531072 0.0530904 0.0544089 0.0542602 0.0532621 0.0545448 0.0526623 0.0542165 0.0533011 0.0545655 0.0527824 0.0541929 0.0532571 0.0545353 0.0528697 0.0541831 0.0531958 0.0545895 0.0543164 0.052585 0.0546058 0.0533583 0.0528523 0.0542972 0.0546112 0.052562 0.0527218 0.0542743 0.0545714 0.0527207 0.0541632 0.052941 0.0545186 0.0526394 0.0542444 0.0530021 0.0544544 0.05262 0.0542132 0.0526754 0.0544611 0.0530937 0.0540802 0.052753 0.0545039 0.0531069 0.0527585 0.0541456 0.0545457 0.0529317 0.0528428 0.0541111 0.0545045 0.0529593 0.0529374 0.0520804 0.054739 0.0540034 0.0521292 0.0529867 0.0540148 0.0522423 0.0528282 0.0546922 0.0541061 0.0522046 0.0527994 0.0547128 0.0541377 0.0520221 0.0529043 0.0546936 0.0520473 0.0540125 0.0530035 0.0540638 0.0521421 0.0547842 0.0526728 0.054046 0.0526911 0.0547466 0.0523617 0.0539902 0.0527529 0.0546883 0.0528013 0.0542484 0.0547029 0.0527849 0.0524854 0.0547301 0.0527476 0.0541994 0.0547575 0.0524508 0.052705 0.0541953 0.0547333 0.0522462 0.0528415 0.0541582 0.0547604 0.0523891 0.0528897 0.0541158 0.052365 0.0529517 0.0548135 0.0542108 0.0541733 0.0520023 0.0530469 0.0547897 0.0519497 0.0541336 0.0548297 0.0529541 0.0518862 0.0541595 0.0548722 0.0529214 0.0521143 0.0540898 0.0518229 0.0548553 0.0530708 0.0540438 0.0519226 0.0548488 0.0529991 0.0541126 0.0520101 0.0547948 0.0540205 0.0530665 0.0522237 0.0548008 0.0540756 0.053142 0.0522213 0.0547887 0.0531366 0.0539457 0.0523984 0.0548342 0.0530553 0.0539864 0.0523411 0.0532164 0.054834 0.0539305 0.0520673 0.0532824 0.0539007 0.0546624 0.0520924 0.0532286 0.0540008 0.0546266 0.0522006 0.0540363 0.0533242 0.0546845 0.0522357 0.0547223 0.0539498 0.0533846 0.0546979 0.0525868 0.0539403 0.053293 0.0546552 0.0527186 0.053895 0.0546024 0.0534687 0.0527187 0.0545601 0.0533775 0.0525035 0.0538401 0.0545891 0.0531702 0.0524939 0.0546677 0.0544436 0.0531052 0.052598 0.0546507 0.0526042 0.0532757 0.0546143 0.0544009 0.052873 0.0532004 0.0543709 0.054621 0.0528271 0.0532131 0.0547591 0.0543479 0.0529628 0.0547419 0.0531293 0.0543044 0.0547497 0.0527453 0.053321 0.054706 0.0543267 0.0528207 0.0532428 0.0547834 0.0542957 0.052923 0.053356 0.054827 0.054304 0.0528258 0.0547969 0.0533811 0.0547084 0.0542381 0.0524609 0.0534385 0.0546715 0.0542826 0.0525604 0.0534022 0.0542249 0.0547644 0.0523412 0.0541645 0.0534752 0.0547575 0.0542203 0.0524256 0.0532418 0.0542567 0.0526569 0.0547252 0.0532214 0.0533175 0.0547168 0.0541936 0.0533931 0.0527461 0.0541465 0.0542681 0.0533045 0.0526926 0.0543118 0.0541798 0.053325 0.0542249 0.0542072 0.0525413 0.0533887 0.0541588 0.0543984 0.0534651 0.0534025 0.0540978 0.052577 0.0543779 0.0541307 0.0534902 0.0543417 0.0526344 0.0535206 0.0540774 0.0542763 0.0535561 0.0543175 0.0533228 0.054237 0.0534676 0.0542317 0.0535524 0.0541756 0.0542451 0.0541266 0.0536118 0.0533243 0.0542551 0.0541767 0.0533171 0.0534537 0.0542095 0.0541656 0.0533794 0.0541595 0.0532127 0.054202 0.0541733 0.0534042 0.0533362 0.0544396 0.0541066 0.0535095 0.0534413 0.0544024 0.0540974 0.053452 0.0535438 0.0544725 0.0541097 0.0534855 0.0536286 0.0534964 0.05453 0.0535007 0.0540396 0.0544388 0.053622 0.0535699 0.0543736 0.054039 0.0535753 0.0543185 0.0532286 0.053588 0.0542764 0.0539517 0.0533307 0.0536618 0.0544006 0.0539795 0.0533085 0.0537365 0.0543582 0.053194 0.0540279 0.0535932 0.0543275 0.0536838 0.0541081 0.0530795 0.0541055 0.0536901 0.0540328 0.0540774 0.0532136 0.0534114 0.0537211 0.0534076 0.0540329 0.0535011 0.0536765 0.0540553 0.0535377 0.0536331 0.0540109 0.0540349 0.0533018 0.0539525 0.0537786 0.0541774 0.0534218 0.053755 0.0541239 0.0539481 0.0536668 0.0537628 0.0539748 0.053965 0.0539308 0.0538972 0.0539052 0.0537538 0.053877 0.0538065 0.0538886 0.0540891 0.053779 0.0538428 0.053892 0.054011 0.0538494 0.0536402 0.0538295 0.0540183 0.0539225 0.0537208 0.0541133 0.0539511 0.0537624 0.0540658 0.0542256 0.0538687 0.0537072 0.0542381 0.0540662 0.0538029 0.0538814 0.0541563 0.0539716 0.0537961 0.0542909 0.0540215 0.0539552 0.0538471 0.054256 0.0540954 0.0538731 0.0537959 0.0541878 0.0540494 0.0538779 0.0541138 0.053993 0.0539218 0.054128 0.053918 0.0540129 0.0539551 0.0539872 0.0540325 0.0538333 0.053893 0.0540573 0.0540197 0.0535727 0.0539864 0.054207 0.0539261 0.0536676 0.0539378 0.0539357 0.0541467 0.0536534 0.0534814 0.0538113 0.0540023 0.054092 0.0535122 0.0538952 0.0539819 0.0545576 0.0535992 0.0538349 0.0537646 0.0540594 0.0544991 0.0539118 0.0538688 0.0545195 0.0535206 0.0537421 0.0538041 0.0544636 0.0534245 0.0538535 0.0538605 0.0545817 0.053618 0.0545572 0.053685 0.0537744 0.053555 0.0544891 0.0536999 0.0537026 0.0544224 0.0535534 0.0537474 0.0537783 0.0534726 0.0543813 0.0538806 0.0536181 0.0530757 0.0544037 0.0539414 0.0536387 0.0545152 0.053159 0.0538663 0.0537008 0.0544601 0.0538313 0.0530346 0.0537643 0.0544542 0.0538187 0.0530073 0.0537378 0.0537773 0.0531228 0.0546786 0.0537049 0.0537593 0.0532277 0.053766 0.054644 0.0538037 0.0532686 0.0538412 0.0546154 0.0536982 0.0533308 0.0535394 0.0546666 0.0537484 0.0531708 0.0536158 0.0546566 0.053209 0.0536581 0.053641 0.0546206 0.0533209 0.0537077 0.0536099 0.0545708 0.0529084 0.0535993 0.0535362 0.0544984 0.0537825 0.0529365 0.0545144 0.0537173 0.0530595 0.0537225 0.0545635 0.0536821 0.0527555 0.0536673 0.0546198 0.0537235 0.0536841 0.0528235 0.0545474 0.0538621 0.0528541 0.0536015 0.0543216 0.0537867 0.052889 0.05435 0.0536123 0.0537809 0.0530706 0.0542751 0.0536033 0.0537929 0.0531247 0.0544071 0.0535532 0.0532102 0.0543523 0.0538613 0.0535718 0.054315 0.0538732 0.0530073 0.0542896 0.0530065 0.0538233 0.0542245 0.0534135 0.0531188 0.0539152 0.0541627 0.0535043 0.0534241 0.0538144 0.0542413 0.0538933 0.053403 0.0542692 0.0539041 0.053953 0.05352 0.0541836 0.053949 0.0539876 0.0533054 0.0544503 0.0534284 0.0539562 0.0540545 0.0544512 0.0534352 0.0543764 0.0538841 0.0540936 0.0536108 0.0544953 0.0538393 0.0540036 0.0536093 0.05441 0.0540766 0.0537515 0.0544498 0.0541332 0.0536901 0.0542909 0.053764 0.053519 0.0539213 0.054339 0.0538831 0.0535316 0.0540479 0.0539785 0.054212 0.0536015 0.053944 0.0533459 0.053997 0.0542492 0.0538913 0.0532485 0.0539259 0.0543681 0.0537564 0.0533393 0.0540587 0.0538107 0.0531298 0.0539917 0.0542766 0.0538603 0.053229 0.0541131 0.0537928 0.0543181 0.0534031 0.0540387 0.0536672 0.0549267 0.0534349 0.0536363 0.0542087 0.0533444 0.0536948 0.0548936 0.0541414 0.0534918 0.0549089 0.0535526 0.0541205 0.0534639 0.0548852 0.0535435 0.0542009 0.0549281 0.0532603 0.0535984 0.054185 0.0549582 0.0536992 0.0533466 0.0527405 0.0549448 0.0517575 0.053653 0.0528378 0.0549389 0.0518186 0.0536952 0.0529219 0.0518768 0.053592 0.0548751 0.0529092 0.0519322 0.0548869 0.0535381 0.0516075 0.0528499 0.0535877 0.0548598 0.0516991 0.0527867 0.0549209 0.0538482 0.0527637 0.0549069 0.0518503 0.0528786 0.0548955 0.0517718 0.0538507 0.0530152 0.0537894 0.0549838 0.0521193 0.0537661 0.0530298 0.0549696 0.0519863 0.0537593 0.0549718 0.0531284 0.052145 0.0536976 0.053083 0.0518854 0.0530029 0.0538346 0.0550098 0.0520441 0.0531158 0.0550051 0.0537998 0.0519886 0.053174 0.0549962 0.0537314 0.0516343 0.0528678 0.0549486 0.0516901 0.0536486 0.0528011 0.0549597 0.0515371 0.0529629 0.0549255 0.051757 0.0536638 0.0529308 0.0549591 0.0514662 0.0536793 0.0528314 0.0514947 0.0550038 0.0528884 0.0536498 0.0549784 0.0516101 0.0535792 0.0529587 0.0549752 0.0516286 0.0536363 0.0530147 0.051869 0.0548315 0.0535183 0.053043 0.0517822 0.0548178 0.0535212 0.0531214 0.0548507 0.052007 0.0534809 0.0531571 0.0548696 0.0535838 0.0517385 0.0530783 0.0548992 0.0535335 0.0518296 0.0531836 0.0548758 0.0535935 0.0519137 0.054816 0.0532497 0.0534714 0.0522632 0.0531629 0.0534398 0.0547695 0.0522832 0.0548468 0.0532452 0.0534872 0.052457 0.0548064 0.0533074 0.0534511 0.0549367 0.0523711 0.0533376 0.0549108 0.0533914 0.0521597 0.0549125 0.0532603 0.0533419 0.0549402 0.0521398 0.0531991 0.0533967 0.0523136 0.0549715 0.0533197 0.053494 0.0549337 0.052475 0.0533983 0.0548708 0.0534931 0.0535496 0.0525403 0.0533946 0.0548279 0.0534786 0.0523426 0.0548349 0.0533756 0.0548671 0.0524756 0.0532717 0.05355 0.0549 0.0532644 0.0525423 0.0534105 0.0548677 0.0532036 0.0520359 0.0534715 0.0550324 0.0521476 0.0550187 0.0536241 0.05318 0.0520925 0.055022 0.0535478 0.0519426 0.0531169 0.0550724 0.0533051 0.0519897 0.053136 0.0532332 0.0522657 0.0550565 0.0532955 0.0522737 0.0550442 0.0533839 0.0550674 0.0532784 0.0523999 0.0532963 0.0531881 0.0533701 0.0549913 0.052399 0.0531941 0.053437 0.0550108 0.0522086 0.0550463 0.0521051 0.0533552 0.0550309 0.0531001 0.0550355 0.0534563 0.0523555 0.053085 0.0513579 0.053486 0.0531478 0.0513732 0.0535469 0.055099 0.0534045 0.0515015 0.0536171 0.0550861 0.0533209 0.0512524 0.0550752 0.0533994 0.0535268 0.0513866 0.0533165 0.0536085 0.0551084 0.0514479 0.0532901 0.0528362 0.0550915 0.0513215 0.0532291 0.0529025 0.0550557 0.0516816 0.0534027 0.0529735 0.0550564 0.0516141 0.0533239 0.0550732 0.0530206 0.0517589 0.0533902 0.0529065 0.0550716 0.0516085 0.0533254 0.0549645 0.0528433 0.0517087 0.0550046 0.0532217 0.0529941 0.0549784 0.0515728 0.0530847 0.0532674 0.0549968 0.0511677 0.0549464 0.0531509 0.0531502 0.051221 0.0549097 0.0532223 0.0511254 0.0532246 0.054886 0.0531293 0.0530605 0.0512884 0.0549287 0.0531528 0.0510461 0.0549646 0.0530431 0.0510699 0.0532249 0.0549111 0.05312 0.0549504 0.0531594 0.0511513 0.0530123 0.0550394 0.0528643 0.0514741 0.0531648 0.0550193 0.0529263 0.0513983 0.0550115 0.0530257 0.053006 0.0515605 0.0550589 0.0531169 0.0528682 0.0512884 0.0529389 0.0550274 0.0530488 0.0549826 0.0529404 0.0513953 0.0529541 0.0549302 0.0530024 0.0514376 0.0549694 0.0529903 0.0530749 0.0514564 0.0549953 0.0531493 0.0537451 0.0518616 0.053232 0.0549867 0.0537377 0.0518603 0.0531941 0.0537066 0.0549448 0.0520217 0.0532725 0.0536609 0.0517374 0.0530627 0.0547117 0.0518684 0.0536067 0.0531254 0.0547167 0.0520901 0.0536385 0.0532072 0.0548 0.0522329 0.0536634 0.0547605 0.0532826 0.051966 0.0536025 0.0547006 0.0533017 0.0519782 0.0547519 0.053628 0.0534491 0.0547283 0.0521194 0.0535625 0.053381 0.0546038 0.0515851 0.0533081 0.0534978 0.0546559 0.0517729 0.0533846 0.0535634 0.0545594 0.0518025 0.0533134 0.0535031 0.054672 0.0534593 0.0515412 0.0534938 0.0546157 0.0535864 0.0534442 0.0546298 0.0516332 0.0535174 0.0533791 0.054779 0.0516662 0.0534338 0.0536548 0.0548008 0.0535294 0.0547483 0.0515842 0.0536802 0.0533539 0.0548412 0.0535536 0.0518599 0.053455 0.0548126 0.0535342 0.0533256 0.0520104 0.0547719 0.0536802 0.0533633 0.0546956 0.0536203 0.051759 0.0532514 0.0546593 0.0533549 0.0517671 0.0547465 0.0535143 0.053474 0.0547254 0.0519751 0.0535266 0.0546947 0.0534069 0.0535294 0.0518717 0.054518 0.0533271 0.0534247 0.0526437 0.0534339 0.0544659 0.0534249 0.0534966 0.0545283 0.053426 0.0526602 0.0535408 0.054571 0.0535119 0.0527492 0.0544664 0.0536958 0.0534281 0.0527668 0.0544014 0.0536221 0.0533308 0.0525884 0.0543995 0.0533203 0.0535737 0.0525154 0.0543386 0.053239 0.0526815 0.0536244 0.0544094 0.0533411 0.0528709 0.0536794 0.0534245 0.0543516 0.0528916 0.0533192 0.053616 0.0543482 0.0529436 0.0533204 0.0545805 0.0536713 0.0530234 0.0532699 0.0545756 0.053739 0.0545263 0.0531893 0.0528023 0.0537405 0.0545213 0.0532205 0.0528438 0.0536909 0.0546235 0.0532397 0.0524829 0.0537567 0.0546462 0.0532216 0.0526012 0.0538021 0.0545784 0.0531344 0.0523919 0.0538498 0.0544675 0.053099 0.0524937 0.0544135 0.0539338 0.0530231 0.0527116 0.0544631 0.0539299 0.0527114 0.0545152 0.0538156 0.0526017 0.053049 0.0544127 0.0538754 0.0525099 0.0533738 0.0539131 0.0548509 0.052634 0.0532647 0.0548309 0.0539778 0.0527439 0.0533198 0.0547874 0.0536988 0.0530577 0.053251 0.0548949 0.0537415 0.054867 0.0531669 0.0538118 0.0531848 0.0548289 0.0529511 0.053121 0.0547561 0.0537269 0.0529546 0.0532055 0.0530565 0.0547009 0.0536811 0.0532155 0.0547918 0.0530553 0.0537846 0.0531707 0.0547565 0.0531599 0.0538504 0.0531416 0.0547281 0.053915 0.0548711 0.0530028 0.053258 0.0539883 0.0530984 0.0549075 0.0539368 0.0533425 0.0548418 0.0531 0.0538658 0.0532526 0.0530529 0.0539983 0.0549181 0.0530183 0.0531552 0.0540598 0.0548725 0.0529835 0.0531443 0.0539998 0.0548039 0.0528438 0.054122 0.0529352 0.054782 0.0528309 0.0547419 0.0528944 0.0540604 0.0529407 0.0548324 0.0540625 0.0528708 0.0541366 0.0527116 0.0530421 0.0547408 0.0529552 0.0528326 0.0541266 0.0547866 0.0528072 0.0528093 0.0541947 0.054677 0.0530354 0.0529231 0.054274 0.0546274 0.054579 0.0528461 0.0530996 0.0542622 0.0546498 0.053031 0.0531554 0.0541994 0.054697 0.0529254 0.0530707 0.0545893 0.0541853 0.0529297 0.0530382 0.0542606 0.0545255 0.0529474 0.0529779 0.0544587 0.0543273 0.0530908 0.0522928 0.0544662 0.0540529 0.0530015 0.0545255 0.052281 0.0541823 0.0529157 0.0545855 0.0523995 0.0541216 0.0528915 0.0544706 0.0523938 0.0541101 0.0529729 0.0546875 0.0521525 0.0540611 0.0546356 0.052799 0.0541802 0.0521573 0.0529197 0.054702 0.0522566 0.0542377 0.0528634 0.052562 0.0546544 0.0543585 0.0528159 0.0526004 0.0542799 0.0546442 0.0527523 0.0545248 0.0524038 0.0542443 0.0526858 0.0523179 0.0545931 0.0543078 0.0527675 0.052399 0.0544732 0.0528512 0.0543942 0.0525207 0.0545973 0.0527769 0.0524779 0.0537655 0.0545373 0.0538361 0.052693 0.0520703 0.0545351 0.0538463 0.0527392 0.0521794 0.0538222 0.0544782 0.0537558 0.0519531 0.0525711 0.0538092 0.0538919 0.0538767 0.053907 0.0520353 0.0526609 0.0538036 0.0539927 0.0520308 0.0537273 0.0540467 0.053957 0.0521678 0.0539571 0.0539545 0.0522763 0.0540244 0.0538986 0.0538927 0.0523853 0.0540969 0.0538069 0.0538317 0.052123 0.0536622 0.0537477 0.052237 0.0537529 0.0538759 0.0538047 0.053612 0.0538335 0.0521963 0.0538851 0.053675 0.0537807 0.0537713 0.0522988 0.053763 0.05374 0.0537433 0.0527052 0.0539168 0.0536641 0.0526154 0.0538205 0.0536112 0.0538534 0.0527205 0.0539528 0.0524949 0.0537105 0.0539857 0.0540161 0.0526037 0.0537024 0.0539568 0.054095 0.0526843 0.0536416 0.0538881 0.0527972 0.0541184 0.0539506 0.0537962 0.0539526 0.0528891 0.0537323 0.0540143 0.0528706 0.0539905 0.053749 0.0540303 0.0527711 0.054047 0.0536819 0.0539741 0.0527416 0.054108 0.053661 0.0538282 0.0524131 0.0536116 0.0541218 0.05373 0.0524911 0.054174 0.0538052 0.0535197 0.0525606 0.0542448 0.0538902 0.0536201 0.05228 0.0541874 0.05391 0.0535627 0.0524528 0.0538457 0.0541673 0.0534522 0.0537713 0.054226 0.0523716 0.0536588 0.0526447 0.0543287 0.053803 0.0535454 0.053535 0.054332 0.0525352 0.0535483 0.0534968 0.0526345 0.0544006 0.0534831 0.0536196 0.0534362 0.0543438 0.0524331 0.0534581 0.0535248 0.0542967 0.0536156 0.0525408 0.0534328 0.0543827 0.053517 0.053368 0.0534472 0.0542044 0.053999 0.0533075 0.0542612 0.0532373 0.0540957 0.0541774 0.0533895 0.0532833 0.0541532 0.0534157 0.0542002 0.0532864 0.053419 0.0541158 0.0542436 0.0533556 0.0533443 0.0543293 0.0539333 0.0533349 0.0535885 0.0543946 0.0540454 0.0536754 0.0532371 0.0540294 0.0534989 0.0544139 0.0535365 0.0535421 0.0541702 0.0534316 0.0543278 0.0536427 0.0542013 0.0533341 0.0537269 0.0534375 0.054404 0.0542486 0.053626 0.0539699 0.0533486 0.0534526 0.0541119 0.0538709 0.0534253 0.0540919 0.0533513 0.0539396 0.0532973 0.0541659 0.0533779 0.05402 0.0532934 0.0542011 0.0535472 0.0540029 0.053477 0.0538677 0.0532266 0.0540449 0.0532401 0.0539477 0.0534157 0.053979 0.0531944 0.0540161 0.054066 0.0540632 0.0531123 0.0538514 0.0540545 0.053141 0.0541201 0.0541048 0.0537799 0.0540988 0.0536438 0.0539316 0.0540032 0.0540998 0.0540131 0.0536416 0.054073 0.054136 0.0540722 0.0541538 0.0535801 0.0540991 0.0539853 0.0540666 0.0535449 0.0540283 0.0539135 0.0541136 0.0539466 0.0535414 0.0540517 0.0541339 0.0535008 0.0538765 0.0541052 0.0535113 0.0543327 0.0538109 0.0541826 0.0534018 0.0538929 0.0542894 0.0541886 0.0539759 0.0534422 0.054156 0.054251 0.0539296 0.0534148 0.0542324 0.0542185 0.0541421 0.0533061 0.0542091 0.054299 0.0542243 0.0535126 0.0541769 0.0542961 0.0542862 0.0540669 0.0534616 0.0544066 0.0542914 0.0533834 0.054215 0.0543617 0.0541551 0.0540937 0.0542089 0.0543944 0.054227 0.0534678 0.0541631 0.0542032 0.0544551 0.0533077 0.0540063 0.0541798 0.0539545 0.0542391 0.0543473 0.0534014 0.0538809 0.0542605 0.0533739 0.0543237 0.05404 0.0542757 0.0532836 0.0541279 0.0543034 0.0541802 0.0533425 0.0541125 0.0543279 0.0542277 0.0532369 0.0539799 0.0543297 0.0541039 0.0532159 0.0537638 0.0542887 0.0541501 0.0531729 0.0537191 0.0541973 0.0543987 0.0533667 0.0536898 0.0543299 0.0542736 0.0532728 0.0536209 0.0542475 0.054282 0.0532109 0.0537868 0.0542607 0.0541746 0.0543008 0.0538394 0.0541207 0.0532614 0.0537111 0.0543677 0.0531708 0.0542235 0.0535336 0.0543431 0.0531075 0.0537628 0.0534387 0.0543605 0.0531225 0.0538357 0.0544112 0.0536127 0.0530004 0.0543462 0.0536387 0.0535886 0.0530485 0.0544147 0.0536642 0.0534708 0.0529939 0.0543998 0.0537381 0.0535086 0.0529198 0.0537131 0.0544708 0.0538359 0.0531799 0.0538182 0.0545042 0.0530971 0.0537547 0.0539587 0.05446 0.0531262 0.0538928 0.0539004 0.0541449 0.0530683 0.0537921 0.0538265 0.0538589 0.0529174 0.0541672 0.0537795 0.0530238 0.0542158 0.0536796 0.0535615 0.0530366 0.0536367 0.0542215 0.0535373 0.0529188 0.0542466 0.0537142 0.053617 0.0542798 0.052882 0.0535646 0.05343 0.0542714 0.0529718 0.0537291 0.0535103 0.0543504 0.0527893 0.0536575 0.0536797 0.0543325 0.0528159 0.0535791 0.0537246 0.0543263 0.053161 0.0537568 0.0543858 0.053174 0.0531814 0.0535798 0.0544125 0.0531025 0.0532039 0.0536141 0.0542657 0.0530359 0.0530944 0.053649 0.0543009 0.0532151 0.0531263 0.0540228 0.0532578 0.0539916 0.0542467 0.0530372 0.0531113 0.054044 0.0529728 0.0543234 0.0529615 0.0540762 0.0528989 0.0543404 0.0528315 0.0539301 0.0543675 0.0529724 0.0530677 0.0539017 0.0530093 0.0544274 0.0539616 0.0528448 0.0530463 0.0544508 0.0540752 0.0529513 0.0529274 0.0543852 0.0541575 0.0528963 0.0529793 0.0544944 0.0528921 0.0533038 0.0541062 0.0544619 0.0528105 0.0540007 0.0533051 0.0544029 0.053167 0.0540239 0.0531061 0.0544036 0.0538268 0.0532288 0.0530229 0.0544509 0.0537865 0.0533404 0.0538516 0.0544286 0.0530111 0.0531802 0.054491 0.053679 0.0529888 0.054524 0.05379 0.0532523 0.0544553 0.0529044 0.0537289 0.0531133 0.0545134 0.0529266 0.0539516 0.0531007 0.0545045 0.0528209 0.0538603 0.0545584 0.0529834 0.0528303 0.0539056 0.0530053 0.0527318 0.0545484 0.0539316 0.0531418 0.054567 0.0527742 0.0537546 0.0529958 0.0546124 0.0526693 0.0530584 0.0538799 0.0544734 