# vtk DataFile Version 3.0
vtk output
ASCII
DATASET UNSTRUCTURED_GRID
POINTS 44492 float
0 0.0149885 0
0.0103543 0.0104676 0
0.0158982 0.0155487 0
0.0139292 0.0238577 0
0 0.0191034 0
0 0.0149885 0
0.0108102 0 0
0.0180877 0 0
0.0223223 0.0131426 0
0.0158982 0.0155487 0
0.0103543 0.0104676 0
0.0108102 0 0
0 0 0
0.0108102 0 0
0.0103543 0.0104676 0
0 0.0149885 0
0 0 0
0.0223223 0.0131426 0
0.0180877 0 0
0.0311632 0 0
0.0299478 0.0117286 0
0.0246342 0.0138057 0
0.0223223 0.0131426 0
0 0.0191034 0
0.0139292 0.0238577 0
0.0143064 0.0250987 0
0.00860972 0.0324547 0
0 0.0322689 0
0 0.0191034 0
0.00860972 0.0324547 0
0.0143064 0.0250987 0
0.021654 0.0284365 0
0.0215957 0.0367573 0
0.0198947 0.0387904 0
0.0131798 0.0398133 0
0.00860972 0.0324547 0
0.0139292 0.0238577 0
0.0158982 0.0155487 0
0.0223223 0.0131426 0
0.0246342 0.0138057 0
0.0259074 0.0258216 0
0.021654 0.0284365 0
0.0143064 0.0250987 0
0.0139292 0.0238577 0
0.0259074 0.0258216 0
0.0246342 0.0138057 0
0.0299478 0.0117286 0
0.0378326 0.0149487 0
0.0319689 0.0267553 0
0.0259074 0.0258216 0
0.021654 0.0284365 0
0.0259074 0.0258216 0
0.0319689 0.0267553 0
0.0339843 0.0293518 0
0.0347508 0.0381775 0
0.0215957 0.0367573 0
0.021654 0.0284365 0
0.793304 0.413488 0
0.803442 0.411535 0
0.809296 0.417851 0
0.80388 0.42494 0
0.793415 0.423436 0
0.793304 0.413488 0
0.0311632 0 0
0.0413707 0 0
0.0391527 0.0146391 0
0.0378326 0.0149487 0
0.0299478 0.0117286 0
0.0311632 0 0
0.0514838 0.0121435 0
0.0408339 0.0152031 0
0.0391527 0.0146391 0
0.0413707 0 0
0.0475805 0 0
0.0518029 0.0116181 0
0.0514838 0.0121435 0
0.0475805 0 0
0.0639811 0 0
0.0610546 0.0091858 0
0.0518029 0.0116181 0
0.0475805 0 0
0.776786 0.427886 0
0.781451 0.423074 0
0.791393 0.425501 0
0.791654 0.432935 0
0.783526 0.438013 0
0.778625 0.435754 0
0.776786 0.427886 0
0.0514838 0.0121435 0
0.0518029 0.0116181 0
0.0610546 0.0091858 0
0.0661986 0.0157679 0
0.0605687 0.023221 0
0.0551579 0.0226451 0
0.0514838 0.0121435 0
0.365958 0.49381 0
0.379109 0.495306 0
0.376582 0.5073 0
0.37512 0.507967 0
0.363262 0.503585 0
0.362365 0.499099 0
0.365958 0.49381 0
0.80388 0.42494 0
0.809296 0.417851 0
0.810629 0.417791 0
0.819847 0.427628 0
0.815943 0.432427 0
0.806464 0.433609 0
0.80388 0.42494 0
0.0378326 0.0149487 0
0.0391527 0.0146391 0
0.0408339 0.0152031 0
0.0476254 0.0280587 0
0.0339843 0.0293518 0
0.0319689 0.0267553 0
0.0378326 0.0149487 0
0.379392 0.378725 0
0.380165 0.378699 0
0.387248 0.384453 0
0.387445 0.391893 0
0.377961 0.395662 0
0.373232 0.392973 0
0.37259 0.390231 0
0.379392 0.378725 0
0.793415 0.423436 0
0.80388 0.42494 0
0.806464 0.433609 0
0.80491 0.435774 0
0.797797 0.437137 0
0.791654 0.432935 0
0.791393 0.425501 0
0.793415 0.423436 0
0.0353429 0.0388801 0
0.0347508 0.0381775 0
0.0339843 0.0293518 0
0.0476254 0.0280587 0
0.0486587 0.0287202 0
0.0492363 0.0316465 0
0.04233 0.0402258 0
0.0353429 0.0388801 0
0.0408339 0.0152031 0
0.0514838 0.0121435 0
0.0551579 0.0226451 0
0.0486587 0.0287202 0
0.0476254 0.0280587 0
0.0408339 0.0152031 0
0.350136 0.970989 0
0.350259 0.970948 0
0.35945 0.974048 0
0.361137 0.986062 0
0.360778 0.986313 0
0.346039 0.984814 0
0.345492 0.984174 0
0.350136 0.970989 0
0.387248 0.384453 0
0.39686 0.379784 0
0.402139 0.383512 0
0.402762 0.387079 0
0.393402 0.39648 0
0.387445 0.391893 0
0.387248 0.384453 0
0.81832 0.383297 0
0.821475 0.378659 0
0.826666 0.377199 0
0.834257 0.384104 0
0.832056 0.389692 0
0.822507 0.392165 0
0.81832 0.383297 0
0.0486587 0.0287202 0
0.0551579 0.0226451 0
0.0605687 0.023221 0
0.0642464 0.0299901 0
0.0575163 0.0364576 0
0.0492363 0.0316465 0
0.0486587 0.0287202 0
0.393402 0.39648 0
0.402762 0.387079 0
0.41016 0.392436 0
0.410796 0.397959 0
0.403049 0.403688 0
0.393489 0.396868 0
0.393402 0.39648 0
0 0.0322689 0
0.00860972 0.0324547 0
0.0131798 0.0398133 0
0.0097475 0.0449096 0
0 0.0438153 0
0 0.0322689 0
0.35945 0.974048 0
0.364106 0.970595 0
0.375627 0.984666 0
0.374995 0.986606 0
0.370843 0.988949 0
0.361137 0.986062 0
0.35945 0.974048 0
0.807561 0.388643 0
0.810064 0.384044 0
0.81832 0.383297 0
0.822507 0.392165 0
0.821194 0.394956 0
0.81156 0.398555 0
0.807561 0.388643 0
0 0.0438153 0
0.0097475 0.0449096 0
0.011384 0.0502373 0
0.00649313 0.0582519 0
0 0.0584911 0
0 0.0438153 0
0.379668 0.405935 0
0.377961 0.395662 0
0.387445 0.391893 0
0.393402 0.39648 0
0.393489 0.396868 0
0.386406 0.40812 0
0.384492 0.40864 0
0.379668 0.405935 0
0.379653 0.969013 0
0.381809 0.977387 0
0.375627 0.984666 0
0.364106 0.970595 0
0.365733 0.968123 0
0.379653 0.969013 0
0.0198947 0.0387904 0
0.0215957 0.0367573 0
0.0347508 0.0381775 0
0.0353429 0.0388801 0
0.0306621 0.0504168 0
0.0240125 0.0478981 0
0.0198947 0.0387904 0
0.393489 0.396868 0
0.403049 0.403688 0
0.402925 0.409429 0
0.397085 0.413769 0
0.386406 0.40812 0
0.393489 0.396868 0
0.834257 0.384104 0
0.840032 0.381967 0
0.847607 0.389899 0
0.843568 0.396751 0
0.837333 0.397341 0
0.832056 0.389692 0
0.834257 0.384104 0
0.0097475 0.0449096 0
0.0131798 0.0398133 0
0.0198947 0.0387904 0
0.0240125 0.0478981 0
0.0177829 0.0528861 0
0.011384 0.0502373 0
0.0097475 0.0449096 0
0.346039 0.984814 0
0.360778 0.986313 0
0.35493 1 0
0.346583 1 0
0.346039 0.984814 0
0.410796 0.397959 0
0.41016 0.392436 0
0.419309 0.385365 0
0.426335 0.391047 0
0.426446 0.395634 0
0.416428 0.401274 0
0.410796 0.397959 0
0 0.0584911 0
0.00649313 0.0582519 0
0.0125906 0.0653512 0
0.0101601 0.0713559 0
0 0.0711065 0
0 0.0584911 0
0.817534 0.410868 0
0.811086 0.399512 0
0.81156 0.398555 0
0.821194 0.394956 0
0.827225 0.404334 0
0.821993 0.410908 0
0.817534 0.410868 0
0.361137 0.986062 0
0.370843 0.988949 0
0.371375 1 0
0.35493 1 0
0.360778 0.986313 0
0.361137 0.986062 0
0.418931 0.381997 0
0.419309 0.385365 0
0.41016 0.392436 0
0.402762 0.387079 0
0.402139 0.383512 0
0.411409 0.376166 0
0.418931 0.381997 0
0.00649313 0.0582519 0
0.011384 0.0502373 0
0.0177829 0.0528861 0
0.0209518 0.0627471 0
0.0125906 0.0653512 0
0.00649313 0.0582519 0
0.83306 0.404077 0
0.837333 0.397341 0
0.843568 0.396751 0
0.848146 0.40355 0
0.844241 0.411608 0
0.837805 0.411285 0
0.83306 0.404077 0
0.0301684 0.0589127 0
0.0212797 0.0628609 0
0.0209518 0.0627471 0
0.0177829 0.0528861 0
0.0240125 0.0478981 0
0.0306621 0.0504168 0
0.0314711 0.052036 0
0.0301684 0.0589127 0
0.371581 0.888242 0
0.378298 0.879659 0
0.381399 0.879932 0
0.387961 0.890005 0
0.384478 0.897073 0
0.380021 0.897032 0
0.371581 0.888242 0
0.426335 0.391047 0
0.435337 0.385205 0
0.439605 0.387513 0
0.441942 0.394531 0
0.437685 0.400196 0
0.431134 0.400069 0
0.426446 0.395634 0
0.426335 0.391047 0
0.822507 0.392165 0
0.832056 0.389692 0
0.837333 0.397341 0
0.83306 0.404077 0
0.827225 0.404334 0
0.821194 0.394956 0
0.822507 0.392165 0
0.0353429 0.0388801 0
0.04233 0.0402258 0
0.0455385 0.045856 0
0.0417725 0.0515388 0
0.0314711 0.052036 0
0.0306621 0.0504168 0
0.0353429 0.0388801 0
0.418931 0.381997 0
0.42721 0.374784 0
0.433795 0.378602 0
0.435337 0.385205 0
0.426335 0.391047 0
0.419309 0.385365 0
0.418931 0.381997 0
0.389064 0.872018 0
0.395926 0.874123 0
0.394706 0.888256 0
0.387961 0.890005 0
0.381399 0.879932 0
0.389064 0.872018 0
0.855873 0.383345 0
0.866635 0.384236 0
0.867503 0.393964 0
0.866285 0.395436 0
0.859238 0.397125 0
0.852476 0.388747 0
0.855873 0.383345 0
0.04233 0.0402258 0
0.0492363 0.0316465 0
0.0575163 0.0364576 0
0.057675 0.0376862 0
0.0503244 0.0466809 0
0.0455385 0.045856 0
0.04233 0.0402258 0
0.403049 0.403688 0
0.410796 0.397959 0
0.416428 0.401274 0
0.417851 0.410223 0
0.410902 0.414151 0
0.402925 0.409429 0
0.403049 0.403688 0
0.394706 0.888256 0
0.395926 0.874123 0
0.399204 0.873068 0
0.406919 0.877727 0
0.407713 0.887834 0
0.400139 0.890925 0
0.394706 0.888256 0
0.0503244 0.0466809 0
0.057675 0.0376862 0
0.0651778 0.044862 0
0.0650995 0.0491235 0
0.0555549 0.0532052 0
0.0503244 0.0466809 0
0.416428 0.401274 0
0.426446 0.395634 0
0.431134 0.400069 0
0.425599 0.41362 0
0.425451 0.413696 0
0.417851 0.410223 0
0.416428 0.401274 0
0.842046 0.377429 0
0.853408 0.375697 0
0.855873 0.383345 0
0.852476 0.388747 0
0.847607 0.389899 0
0.840032 0.381967 0
0.842046 0.377429 0
0.0417725 0.0515388 0
0.0455385 0.045856 0
0.0503244 0.0466809 0
0.0555549 0.0532052 0
0.0549648 0.0563641 0
0.0471573 0.0604879 0
0.0445091 0.0598457 0
0.0417725 0.0515388 0
0.425599 0.41362 0
0.431134 0.400069 0
0.437685 0.400196 0
0.441961 0.408792 0
0.437528 0.414945 0
0.425599 0.41362 0
0.371337 0.905027 0
0.380021 0.897032 0
0.384478 0.897073 0
0.387886 0.901878 0
0.38299 0.912291 0
0.377263 0.913138 0
0.371336 0.90668 0
0.371337 0.905027 0
0.866635 0.384236 0
0.86844 0.382109 0
0.880764 0.384088 0
0.8801 0.394254 0
0.879858 0.394413 0
0.867503 0.393964 0
0.866635 0.384236 0
0.0369523 0.064874 0
0.0363716 0.0647407 0
0.0301684 0.0589127 0
0.0314711 0.052036 0
0.0417725 0.0515388 0
0.0445091 0.0598457 0
0.0369523 0.064874 0
0.370144 0.409571 0
0.379668 0.405935 0
0.384492 0.40864 0
0.382064 0.419299 0
0.376004 0.421811 0
0.370671 0.418644 0
0.370144 0.409571 0
0.846935 0.415459 0
0.844241 0.411608 0
0.848146 0.40355 0
0.856069 0.402883 0
0.860657 0.411364 0
0.857056 0.415318 0
0.846935 0.415459 0
0.384492 0.40864 0
0.386406 0.40812 0
0.397085 0.413769 0
0.396571 0.421031 0
0.389968 0.424458 0
0.382064 0.419299 0
0.384492 0.40864 0
0.387961 0.890005 0
0.394706 0.888256 0
0.400139 0.890925 0
0.398227 0.90352 0
0.398166 0.903551 0
0.387886 0.901878 0
0.384478 0.897073 0
0.387961 0.890005 0
0.410902 0.414151 0
0.410504 0.42224 0
0.403654 0.425621 0
0.396571 0.421031 0
0.397085 0.413769 0
0.402925 0.409429 0
0.410902 0.414151 0
0.848146 0.40355 0
0.843568 0.396751 0
0.847607 0.389899 0
0.852476 0.388747 0
0.859238 0.397125 0
0.856069 0.402883 0
0.848146 0.40355 0
0.0471573 0.0604879 0
0.0549648 0.0563641 0
0.0615529 0.0642092 0
0.0547686 0.0721152 0
0.05101 0.0720277 0
0.0471573 0.0604879 0
0.379829 0.443592 0
0.380483 0.435154 0
0.388796 0.432138 0
0.394794 0.437153 0
0.394388 0.443626 0
0.385991 0.447563 0
0.379829 0.443592 0
0.400139 0.890925 0
0.407713 0.887834 0
0.411517 0.889794 0
0.413988 0.895764 0
[...]
CELL_DATA 6400
FIELD FieldData 3
weight 1 6400 float
 0.0537023 0.0537421 0.0536388 0.0538198 0.0536937 0.0537779 0.0538059 0.0538965 0.0539007 0.0543475 0.0539132 0.0540018 0.0540864 0.0543685 0.0541368 0.0545891 0.0542223 0.0540005 0.0553328 0.0542711 0.0540102 0.0540622 0.0491828 0.0553678 0.0543932 0.0541375 0.0553396 0.053712 0.0492713 0.0544265 0.0537497 0.0552708 0.0493517 0.0539203 0.0552622 0.0542781 0.0538486 0.0490602 0.0553751 0.0537824 0.0543324 0.0490292 0.0554169 0.0538415 0.0541906 0.0539106 0.0504484 0.0553888 0.054311 0.0540103 0.0554467 0.050567 0.0541215 0.0541034 0.0552892 0.0505754 0.0541914 0.0553284 0.0542573 0.0541202 0.0553214 0.0502193 0.0540241 0.054042 0.0551632 0.0540787 0.0551836 0.0503788 0.0552057 0.0541557 0.0541971 0.0550302 0.0503964 0.0539744 0.0542533 0.0550988 0.0505221 0.0542553 0.0540282 0.0551188 0.0541948 0.054234 0.0506205 0.0543367 0.0552245 0.05422 0.0544032 0.0552433 0.0506147 0.0541055 0.0543072 0.0551418 0.0503296 0.0542181 0.054088 0.0551326 0.0504679 0.0544186 0.0541258 0.0551771 0.0543126 0.0503815 0.0540195 0.0544123 0.0554861 0.054474 0.0500351 0.0541235 0.0554382 0.0544997 0.0501829 0.0540143 0.0554674 0.0545641 0.0501908 0.0538852 0.0544893 0.0553616 0.0498809 0.0545899 0.0539436 0.0554066 0.0500068 0.0545518 0.0539599 0.0500019 0.0555128 0.0546667 0.0538689 0.0501676 0.0554569 0.0546232 0.0501357 0.0544507 0.054239 0.0502037 0.0555101 0.0543054 0.0543542 0.0499743 0.0554527 0.0544613 0.0543378 0.0507449 0.0543929 0.0553878 0.0543209 0.0543374 0.0553944 0.0507944 0.0544115 0.0544877 0.0507944 0.0543061 0.0543837 0.0553848 0.0505717 0.0545113 0.0541962 0.0552841 0.0545791 0.0506142 0.0553208 0.0542592 0.050431 0.0546661 0.055247 0.0542288 0.0553297 0.0545485 0.0508127 0.0541719 0.0552111 0.0546303 0.0541034 0.0551687 0.0506484 0.0541237 0.0547063 0.0551953 0.050614 0.0539694 0.053798 0.0552651 0.0504971 0.0540274 0.05389 0.0553378 0.0541841 0.0539826 0.0504773 0.0553108 0.0539215 0.054076 0.0538143 0.0552707 0.0504723 0.053892 0.0541889 0.0552046 0.0503153 0.0540323 0.0503001 0.0552052 0.0541435 0.0540624 0.0501268 0.0539824 0.0549347 0.049986 0.0549715 0.0541241 0.0539647 0.0550621 0.0540446 0.0501665 0.0540679 0.0548655 0.0542814 0.0502998 0.054065 0.0549189 0.054215 0.0502817 0.0550979 0.0539242 0.0541393 0.0550481 0.0500957 0.0539755 0.0550109 0.0541504 0.0501295 0.0538173 0.0549636 0.0542385 0.0550033 0.0538181 0.0500292 0.0539578 0.054821 0.0539193 0.0497089 0.0538286 0.0547608 0.053995 0.0497735 0.0547783 0.0538525 0.0537344 0.0495774 0.0548765 0.0540319 0.0540095 0.049615 0.0547041 0.0539429 0.0539274 0.0546693 0.0540905 0.0497593 0.0548489 0.0539124 0.0541828 0.0549287 0.0498519 0.053859 0.0548831 0.0542558 0.053807 0.0498576 0.0543192 0.0547508 0.0538959 0.0496115 0.0541274 0.0495471 0.0548142 0.0537239 0.0496866 0.0542833 0.053797 0.0548018 0.0493924 0.0542236 0.0536858 0.0550846 0.0494056 0.0543735 0.0537584 0.0550704 0.0490642 0.0544371 0.0536456 0.0551155 0.0492321 0.0543035 0.0550392 0.0538321 0.0491627 0.0544948 0.0549617 0.0491439 0.0536961 0.0549895 0.0544243 0.0493459 0.053746 0.0551403 0.0494527 0.0545296 0.0536982 0.04951 0.0546045 0.0551455 0.0491809 0.0537155 0.0550869 0.0546002 0.0493176 0.0550182 0.0491774 0.0546724 0.053554 0.0550314 0.0546252 0.0498832 0.0535926 0.0545551 0.0550914 0.0497751 0.0535461 0.0548991 0.0546792 0.0499581 0.0549323 0.0544058 0.0535709 0.0495939 0.0543298 0.0548396 0.0534894 0.0496979 0.0544815 0.054786 0.0544915 0.0498889 0.0534001 0.0549571 0.0544021 0.0499415 0.0534324 0.0548973 0.0543675 0.0496924 0.0549716 0.0539194 0.0544471 0.0496836 0.0548758 0.0538563 0.0498148 0.0545286 0.0548151 0.0538871 0.0495434 0.0545506 0.0538327 0.0546293 0.0494932 0.0548296 0.0537866 0.0546976 0.0494768 0.0537487 0.0558772 0.0492026 0.0547594 0.0558762 0.0493237 0.0536177 0.0545948 0.0559036 0.0492266 0.0536138 0.0558809 0.0495344 0.0536841 0.0559005 0.0547528 0.0493522 0.0537034 0.0559689 0.0546886 0.0493812 0.0535491 0.0559527 0.054668 0.0559043 0.0537877 0.0495279 0.0558563 0.0547011 0.0491367 0.0558407 0.0537358 0.0546713 0.055879 0.0491913 0.0546382 0.0537898 0.0559543 0.0491676 0.054768 0.0559553 0.0547329 0.053702 0.0559433 0.0547258 0.0546554 0.0536407 0.0558975 0.0548652 0.0535941 0.0547956 0.0560208 0.0535883 0.0547408 0.0548016 0.0560073 0.0534691 0.054666 0.056051 0.0534805 0.0560339 0.0547474 0.0533962 0.0548363 0.056075 0.0549021 0.0535158 0.0560713 0.0549726 0.0545472 0.053362 0.0549768 0.0560951 0.0545823 0.053315 0.0549316 0.0560842 0.0548628 0.0535007 0.0545483 0.0560863 0.0549311 0.0533715 0.0560158 0.05471 0.0549889 0.0560341 0.0534884 0.0547932 0.0560119 0.0546889 0.0534059 0.0547294 0.0559855 0.0532716 0.0546938 0.0560622 0.0547673 0.0534332 0.0546112 0.0548585 0.0560775 0.0532967 0.0545978 0.0560659 0.0547929 0.0560596 0.0532449 0.0548405 0.0545147 0.0558463 0.0532596 0.0549053 0.0558206 0.0544507 0.0549212 0.0557802 0.053347 0.0544402 0.0549808 0.0558298 0.0531458 0.0550424 0.0531548 0.0559124 0.0543605 0.0558773 0.0549644 0.0531257 0.0543162 0.0559464 0.0531646 0.0550403 0.0557692 0.0543196 0.053067 0.0550452 0.0557592 0.0550407 0.0544905 0.0551068 0.0551051 0.0543791 0.0550382 0.0543981 0.0551028 0.0542268 0.0551666 0.0542571 0.055162 0.0542985 0.0552246 0.0552756 0.0545891 0.0551673 0.0545641 0.0530611 0.0546613 0.055767 0.0552262 0.0545116 0.0532282 0.0558143 0.0552287 0.0544657 0.053356 0.055859 0.0553006 0.0531656 0.0558374 0.0545857 0.0550659 0.0551383 0.0557931 0.053237 0.0546188 0.0552034 0.0559797 0.053082 0.0551175 0.0559224 0.0545618 0.0531332 0.0551081 0.0559832 0.0530518 0.0544643 0.0552026 0.056025 0.0528776 0.0551863 0.0543707 0.0560524 0.0552459 0.0544575 0.0529668 0.0560212 0.0553728 0.0529588 0.0544831 0.0560202 0.055313 0.0529545 0.0544208 0.0559513 0.0552928 0.0529076 0.0544124 0.0559023 0.0527865 0.0553432 0.0543245 0.0558907 0.0535561 0.0552712 0.0542942 0.055978 0.0536203 0.0552799 0.0559923 0.0541981 0.0534662 0.0543644 0.0559337 0.0554024 0.0535346 0.0559468 0.0543487 0.0547502 0.0542335 0.0561046 0.0535302 0.0548717 0.0542508 0.0548284 0.0533158 0.054105 0.0561079 0.0547627 0.0533912 0.0542292 0.0560926 0.0548328 0.0534033 0.0541372 0.0560978 0.0548962 0.0532052 0.0550218 0.0542196 0.0560971 0.0532644 0.0560981 0.0549412 0.0540965 0.0531655 0.0560945 0.0550935 0.0541817 0.0533076 0.0560923 0.0550166 0.0540895 0.0560735 0.0531504 0.054999 0.0560704 0.0539558 0.0534138 0.0549487 0.0560889 0.0539534 0.0551036 0.0532782 0.0560869 0.0560768 0.0540159 0.055079 0.053296 0.05413 0.056103 0.0548307 0.0560973 0.0533062 0.0541651 0.0548955 0.0540062 0.0549569 0.0531521 0.0561045 0.0539215 0.053217 0.0548327 0.0561048 0.0540314 0.0530676 0.0560987 0.0547807 0.0538742 0.0560946 0.0548947 0.0530141 0.0560833 0.0538134 0.0549306 0.0560773 0.0537839 0.055072 0.0530034 0.0560907 0.0550422 0.0537174 0.0560702 0.0531176 0.0549836 0.0560842 0.0551232 0.0528957 0.0536552 0.0560624 0.0550189 0.0529854 0.053635 0.0560476 0.0538577 0.0551656 0.056048 0.0531883 0.0537789 0.0551475 0.0560704 0.0537037 0.0530891 0.0560711 0.0550863 0.0529677 0.0560494 0.0536295 0.0551649 0.0560236 0.0530475 0.0541747 0.0552547 0.0560017 0.0529332 0.0540627 0.0552596 0.0560197 0.0530311 0.054039 0.0551704 0.0559608 0.0528503 0.0539262 0.0551574 0.0559984 0.0540121 0.0529583 0.0553282 0.0560016 0.0541238 0.0552588 0.0560142 0.052802 0.0553458 0.0528337 0.0539766 0.0559734 0.0528376 0.0553295 0.0539587 0.0559732 0.052695 0.0560593 0.0538802 0.0554093 0.0527269 0.0560465 0.0538395 0.0560309 0.0527597 0.0554878 0.0537761 0.0560308 0.0526935 0.053742 0.0554132 0.0525923 0.0560691 0.0538813 0.0553976 0.0528919 0.056049 0.0538454 0.0554967 0.0560236 0.0527836 0.0535804 0.0554566 0.0559908 0.0536408 0.0551962 0.0560057 0.0527656 0.0536992 0.0552419 0.0559744 0.0526822 0.0552727 0.0537781 0.0526369 0.055321 0.0559521 0.0537002 0.0552157 0.0526351 0.0559977 0.0535582 0.0553618 0.0524554 0.0536395 0.0552916 0.0559691 0.0525429 0.0557655 0.0553549 0.0535456 0.052561 0.0557191 0.0554403 0.0556904 0.0524083 0.054474 0.0553879 0.0557197 0.0524899 0.055666 0.0544528 0.0523862 0.0555334 0.0558412 0.0543566 0.0522062 0.0554987 0.0557833 0.0544513 0.0554221 0.0557759 0.0523201 0.0555882 0.0543479 0.0554802 0.0523828 0.0556218 0.055641 0.0520833 0.0543306 0.0555069 0.0555964 0.0522108 0.0543388 0.0555402 0.05394 0.0556986 0.0522088 0.0538567 0.0543589 0.0556986 0.0539383 0.0523152 0.0542303 0.0555844 0.0540168 0.0525715 0.0542169 0.0556425 0.0538626 0.0538658 0.0542136 0.0558357 0.0524925 0.0539322 0.0542305 0.055777 0.052653 0.0540371 0.0558315 0.0542241 0.052592 0.0558849 0.0541062 0.0540974 0.0523939 0.0558906 0.0541061 0.0540978 0.0523909 0.054209 0.0559302 0.0541095 0.0524969 0.0558605 0.0541097 0.054199 0.0557607 0.052002 0.0539964 0.054088 0.0519742 0.0556433 0.0539877 0.0541705 0.0557433 0.0539922 0.0520674 0.0557952 0.0542949 0.0521092 0.0542731 0.0558166 0.0542377 0.0518598 0.0557201 0.0539132 0.054285 0.0518733 0.053845 0.0557823 0.0539931 0.0541953 0.052234 0.0555183 0.0554674 0.0539663 0.054176 0.052363 0.0554786 0.0538326 0.0541514 0.0554101 0.0539072 0.0524233 0.0540834 0.0555929 0.0539527 0.0520952 0.0555425 0.0540352 0.0521316 0.0555156 0.0541521 0.0540567 0.055413 0.0522781 0.0553303 0.054136 0.0540274 0.0522583 0.0552805 0.0542824 0.0553524 0.0540657 0.0527829 0.0542098 0.0553047 0.0539737 0.0541271 0.052931 0.0554263 0.0539243 0.0541946 0.0554507 0.0527086 0.0544258 0.0553591 0.0538957 0.0525967 0.0556557 0.054337 0.0527922 0.0540242 0.0556252 0.0544781 0.0528533 0.0540851 0.0555662 0.0545128 0.0555645 0.0539989 0.0530751 0.054335 0.0555068 0.053873 0.0543873 0.055685 0.0538176 0.0530135 0.0545245 0.053907 0.0544315 0.0557018 0.0531654 0.0538721 0.0556332 0.0546024 0.0537455 0.0554985 0.0529498 0.0547019 0.0538539 0.0530045 0.0554321 0.0545714 0.0538045 0.0554329 0.0546187 0.0530744 0.0537391 0.0555692 0.0547039 0.0525293 0.0555654 0.0537003 0.0546623 0.0555067 0.0526383 0.0536302 0.0542984 0.0526501 0.0554951 0.0543731 0.0540275 0.052519 0.0559444 0.0544499 0.0539771 0.05588 0.0523833 0.0542947 0.0539756 0.0559042 0.0525005 0.0543806 0.0538802 0.0544736 0.0559444 0.0528448 0.0537552 0.0543756 0.0559207 0.0527763 0.0538613 0.0528209 0.0558905 0.0538576 0.0545567 0.0529163 0.0538662 0.0546352 0.0559149 0.0526624 0.0545492 0.0538642 0.0558354 0.0537193 0.0526594 0.0547293 0.0558513 0.0537335 0.0545513 0.0558036 0.0527451 0.0536013 0.0558649 0.0517388 0.054644 0.0537303 0.0517206 0.0558083 0.0546423 0.0537392 0.0558151 0.05362 0.0547191 0.0519315 0.0538632 0.0517949 0.0559356 0.0536011 0.0515794 0.0559009 0.0539839 0.0534968 0.05165 0.0558787 0.0540407 0.053597 0.0516952 0.053592 0.0559219 0.0538613 0.0519436 0.0534695 0.0539057 0.0559142 0.0538058 0.0521412 0.0534479 0.055941 0.0539689 0.0534663 0.0521679 0.0558764 0.0541206 0.0533396 0.0518028 0.0558964 0.0540518 0.0533481 0.0519484 0.0558522 0.0541566 0.0558475 0.0519602 0.0537298 0.0558071 0.0542449 0.0521034 0.0537007 0.0558231 0.0540075 0.0514686 0.0535953 0.0558501 0.0540998 0.0515253 0.0535921 0.0513424 0.0542007 0.0557722 0.0534442 0.0513442 0.0537848 0.0535728 0.0557492 0.0514895 0.0538341 0.053605 0.0557714 0.0513854 0.0539254 0.0557256 0.0515094 0.0535173 0.0556835 0.0539465 0.0517991 0.0556384 0.0537455 0.0534896 0.051657 0.0557441 0.0537707 0.0534116 0.0518539 0.0557724 0.0538651 0.053363 0.0516974 0.0556897 0.0538906 0.0534561 0.0557209 0.0517539 0.0540474 0.0556228 0.0534492 0.0517423 0.0541369 0.0555282 0.053323 0.052305 0.0555845 0.0541448 0.0556277 0.05229 0.0533166 0.0556586 0.0540547 0.0524597 0.0532985 0.0539844 0.0555259 0.0523812 0.0532921 0.0539854 0.0555638 0.0520938 0.0532434 0.05575 0.0522006 0.0541343 0.0531301 0.0557686 0.052332 0.0543064 0.0557135 0.0531924 0.0521712 0.0544729 0.0556795 0.0531556 0.0524869 0.0543962 0.0557345 0.0543083 0.0525617 0.0529896 0.0557063 0.0542213 0.0525954 0.0556626 0.0543951 0.0534074 0.05239 0.0543223 0.055605 0.0524827 0.0534937 0.054565 0.0555598 0.0519651 0.0544858 0.0535673 0.0556336 0.051884 0.0546638 0.053476 0.0556226 0.0520372 0.0544883 0.0555803 0.05331 0.0518441 0.0545978 0.0561162 0.0532441 0.0519629 0.054682 0.0561017 0.0535502 0.0519816 0.0561111 0.0542317 0.0534185 0.052206 0.0544123 0.0561255 0.0534852 0.0521292 0.0543216 0.0533271 0.0522752 0.0542362 0.0561223 0.0532623 0.0522613 0.0561169 0.0533476 0.056096 0.0541504 0.0524158 0.053118 0.0560876 0.0543389 0.0521022 0.0531799 0.0561136 0.0545212 0.0530783 0.0560996 0.0521092 0.0544376 0.0560809 0.0530053 0.0545171 0.0532234 0.0561023 0.0529642 0.0546128 0.05316 0.0561333 0.0531828 0.0561316 0.0546026 0.0532973 0.0531244 0.0561278 0.0561241 0.054425 0.0529261 0.0532858 0.0561319 0.0530379 0.0545198 0.0530159 0.05612 0.0529754 0.0561273 0.0545982 0.0531469 0.0561135 0.0534306 0.0561206 0.0534529 0.0547614 0.0534864 0.056098 0.0534553 0.0532755 0.0561099 0.0548022 0.0548589 0.0533424 0.0560884 0.0536239 0.0549414 0.0534143 0.0561038 0.054899 0.0535582 0.0560598 0.0534861 0.0532645 0.0547884 0.0560424 0.0533882 0.0549608 0.0534067 0.0560439 0.0532637 0.0548721 0.0560194 0.0533748 0.0531797 0.0549807 0.0560854 0.0528924 0.0532253 0.0560662 0.0550206 0.0530338 0.0560318 0.0533254 0.0551751 0.0560042 0.0528836 0.053183 0.0550948 0.0559965 0.0531933 0.0530178 0.0550416 0.0531381 0.0559755 0.0531847 0.0551081 0.056008 0.0530108 0.053261 0.0548013 0.0559827 0.0528757 0.0533439 0.0548813 0.0560753 0.053007 0.0560556 0.0548814 0.0530995 0.0531047 0.0560567 0.0548043 0.0531306 0.053051 0.0560693 0.0548717 0.0531919 0.0529757 0.0560866 0.0549755 0.0528728 0.0560769 0.0537096 0.0551122 0.0529099 0.0560354 0.0550435 0.0560361 0.0551175 0.053798 0.0528742 0.0559587 0.0549526 0.0537288 0.0527974 0.0559931 0.0550251 0.0560182 0.0538318 0.0550924 0.0560048 0.0552595 0.0535272 0.0526414 0.0559594 0.0527495 0.0536055 0.0552363 0.0559918 0.0526685 0.0553723 0.0537052 0.05612 0.0553073 0.0528614 0.0535989 0.0561055 0.0551885 0.0526368 0.0561033 0.0552534 0.0527546 0.0538825 0.0553252 0.0527401 0.0539291 0.0560845 0.0525109 0.0554279 0.056098 0.0539101 0.0525925 0.0554107 0.0560751 0.0560793 0.0524734 0.0537569 0.0554736 0.0560943 0.055367 0.0523819 0.0561125 0.0537699 0.0554419 0.0560906 0.0534519 0.0523087 0.0560756 0.0535439 0.0554746 0.0525286 0.056057 0.0532962 0.0524682 0.0560463 0.0555041 0.053447 0.0560723 0.0525624 0.055186 0.0533863 0.0560685 0.0552418 0.0523712 0.0553178 0.0536131 0.0560361 0.0522901 0.0553116 0.0560394 0.0536466 0.0523796 0.0552275 0.0560504 0.0551668 0.0535132 0.0528302 0.0552982 0.0527197 0.0560059 0.0553611 0.053592 0.0527464 0.0560086 0.0554011 0.0534922 0.0526876 0.0560299 0.0560273 0.0525466 0.0527197 0.0554816 0.0525874 0.0529415 0.0559979 0.0554339 0.0527885 0.0528639 0.0559904 0.0526406 0.0526044 0.0553368 0.0560206 0.0559983 0.0525846 0.0554029 0.0527527 0.0527213 0.0560761 0.0524822 0.0554452 0.0528392 0.0560505 0.0525995 0.0527046 0.0547338 0.0560543 0.05246 0.0530165 0.0560319 0.0547701 0.052498 0.0530287 0.0559913 0.0548642 0.0524275 0.0528851 0.0560167 0.0547646 0.0523501 0.0560229 0.0528734 0.0548445 0.0530127 0.0559663 0.0549301 0.0522175 0.0559856 0.0549435 0.0524022 0.0560031 0.0550158 0.0522025 0.0525173 0.0559805 0.0550713 0.0525339 0.0522731 0.0559158 0.0548885 0.0523921 0.055947 0.0522213 0.0550474 0.0523255 0.0559508 0.0549927 0.0523449 0.0560142 0.0522368 0.0546916 0.0526962 0.0559945 0.0559755 0.0526845 0.0546973 0.0521229 0.0528639 0.0559688 0.0547892 0.052177 0.0527245 0.0559404 0.0547912 0.0525263 0.0559482 0.0534524 0.0546831 0.0559452 0.052481 0.0533552 0.054761 0.0559214 0.0525951 0.0548772 0.0531382 0.0558822 0.0532057 0.054957 0.0531585 0.0532933 0.0550031 0.0558691 0.0531895 0.0532081 0.054849 0.0533011 0.0558983 0.0533082 0.0549367 0.0530133 0.0558939 0.0532078 0.0549889 0.0530506 0.0559001 0.0532058 0.0533659 0.054903 0.0531415 0.0559392 0.0533229 0.0551321 0.0530504 0.0558778 0.055207 0.0534077 0.0530901 0.055943 0.0551536 0.0529877 0.0531635 0.0559241 0.0552717 0.0530361 0.0532112 0.0558638 0.0551755 0.0558918 0.0550996 0.0529355 0.0532436 0.0558344 0.0552371 0.0528598 0.0528396 0.0557893 0.0552453 0.0528825 0.052869 0.0551719 0.0558036 0.0527291 0.0530381 0.0558195 0.0553026 0.0529589 0.0558491 0.0527267 0.0553759 0.0557635 0.0528507 0.0528735 0.0559362 0.0528121 0.0553779 0.0530454 0.0558816 0.0553103 0.0526938 0.0530244 0.0558891 0.0553747 0.0531988 0.0559164 0.053115 0.0550871 0.0531503 0.0559417 0.0528735 0.0550778 0.0558692 0.0530057 0.0558407 0.0551976 0.0529667 0.0529173 0.0558046 0.0511888 0.0551616 0.0557504 0.0530757 0.0512347 0.0558244 0.0530207 0.0513518 0.0550128 0.0557664 0.0510751 0.0530687 0.0551028 0.05579 0.0511102 0.0530263 0.0551626 0.0509531 0.0557563 0.0528613 0.0512054 0.0553156 0.0556797 0.0557037 0.0515299 0.0552563 0.0528603 0.0557349 0.051428 0.0528901 0.0556556 0.0553635 0.0515772 0.055684 0.0556373 0.0527125 0.0552505 0.0512311 0.0514981 0.052723 0.0555412 0.055377 0.0528932 0.0513854 0.0555856 0.0508233 0.0527553 0.0555845 0.0552963 0.0509842 0.0528163 0.0556209 0.0552794 0.0510112 0.0527231 0.0508746 0.0553487 0.052588 0.0507265 0.0554044 0.0525105 0.0507991 0.0553443 0.0553928 0.0511136 0.0526503 0.0553483 0.0527131 0.0511965 0.0554153 0.0525714 0.0512605 0.0554344 0.0513283 0.0525601 0.0554529 0.0510455 0.055444 0.0525183 0.0509461 0.0555076 0.0510264 0.0554988 0.0524483 0.0554838 0.0511444 0.0527569 0.0555961 0.0516586 0.0526736 0.055525 0.0554428 0.0518048 0.0525832 0.0517939 0.0525095 0.0553754 0.0525639 0.0554821 0.0516593 0.0527113 0.0554671 0.0515063 0.0525082 0.0555331 0.051586 0.0526611 0.0555354 0.052516 0.0517079 0.0555239 0.052423 0.0555701 0.0518757 0.0523495 0.055577 0.0523402 0.055634 0.0519304 0.0523118 0.0556637 0.0520586 0.0556135 0.0524044 0.0517304 0.0556753 0.0523369 0.0519715 0.05223 0.0557142 0.0513429 0.055565 0.0514671 0.0521048 0.0556281 0.0555672 0.0514848 0.0520287 0.0555704 0.0512029 0.0521615 0.0556549 0.0522225 0.0512935 0.0556376 0.0521784 0.0556967 0.051336 0.055612 0.0520142 0.0556978 0.0515798 0.0520749 0.0556893 0.0516164 0.055669 0.0519592 0.055717 0.0517609 0.0525534 0.0557718 0.0514313 0.0557385 0.0524152 0.0514314 0.0557245 0.0523933 0.0516189 0.0557553 0.0522308 0.0557208 0.0505944 0.0522685 0.0506632 0.0557753 0.0505011 0.052365 0.0558138 0.0507777 0.0557628 0.0523404 0.0503568 0.0557907 0.0504768 0.052338 0.0558163 0.0504827 0.0522166 0.0558774 0.050606 0.0520113 0.055822 0.0508633 0.0558485 0.0521804 0.0508337 0.0558653 0.0521741 0.0509429 0.0559111 0.0520797 0.0506774 0.0520745 0.0506747 0.055918 0.0520777 0.0555383 0.0507757 0.0503161 0.0519187 0.0554812 0.0502274 0.0519263 0.0555973 0.0501953 0.0556044 0.0520117 0.0503222 0.0555506 0.0500699 0.0518293 0.0556383 0.0500981 0.0556074 0.051907 0.0556595 0.0501671 0.0518678 0.0556553 0.0505284 0.055707 0.0516827 0.0505587 0.0557472 0.0503708 0.0557689 0.054026 0.0503254 0.0556876 0.0505043 0.0557238 0.0539404 0.0557741 0.0503844 0.0557352 0.0539113 0.051089 0.0555828 0.0509045 0.053837 0.0510999 0.0555504 0.0556445 0.050893 0.0538477 0.0510441 0.0538274 0.0555607 0.0508805 0.0556208 0.0536836 0.0556781 0.0512477 0.0536957 0.0556598 0.0512917 0.0537053 0.0557317 0.0514638 0.0556984 0.0535619 0.0510978 0.0557729 0.0535726 0.0557137 0.0512034 0.053761 0.0557652 0.0512282 0.0557381 0.0537483 0.0507182 0.0507056 0.0557694 0.0537004 0.0509052 0.0557942 0.0536073 0.0558429 0.0505167 0.0536236 0.0558789 0.0504279 0.055835 0.0535645 0.0505547 0.0558217 0.053474 0.0558564 0.050652 0.0535683 0.0558901 0.0559247 0.0507214 0.0534113 0.0508948 0.0559274 0.0534762 0.0510418 0.0534356 0.0559525 0.0510319 0.0533935 0.0559043 0.0559434 0.0508482 0.0532948 0.0558211 0.0507127 0.0558151 0.0536048 0.0558591 0.0509292 0.053457 0.05581 0.0521909 0.0558806 0.0535243 0.0523266 0.0558448 0.0535778 0.052235 0.0558529 0.053428 0.0559247 0.053334 0.0520776 0.0558955 0.0519185 0.0559485 0.0534281 0.055916 0.0521207 0.0533496 0.0559103 0.0524543 0.053265 0.0523025 0.0559463 0.0533325 0.0557684 0.0524435 0.053