# vtk DataFile Version 3.0
vtk output
ASCII
DATASET UNSTRUCTURED_GRID
POINTS 44494 float
0 0 0
0.0104793 0 0
0.0121403 0.00958577 0
0.00919323 0.0122274 0
0 0.0113281 0
0 0 0
0.0104793 0 0
0.0256387 0 0
0.0220766 0.0113747 0
0.0121403 0.00958577 0
0.0104793 0 0
0.0220766 0.0113747 0
0.0256387 0 0
0.0365507 0 0
0.0313462 0.0126744 0
0.0234524 0.0133075 0
0.0220766 0.0113747 0
0 0.0113281 0
0.00919323 0.0122274 0
0.0103393 0.0214677 0
0.00347368 0.0271487 0
0 0.0268061 0
0 0.0113281 0
0.00919323 0.0122274 0
0.0121403 0.00958577 0
0.0220766 0.0113747 0
0.0234524 0.0133075 0
0.0231435 0.0157135 0
0.0148117 0.023172 0
0.0103393 0.0214677 0
0.00919323 0.0122274 0
0.00347368 0.0271487 0
0.0103393 0.0214677 0
0.0148117 0.023172 0
0.0184221 0.0320717 0
0.0150768 0.0356161 0
0.0104052 0.0359026 0
0.00347368 0.0271487 0
0.0231435 0.0157135 0
0.0234524 0.0133075 0
0.0313462 0.0126744 0
0.0379588 0.0184611 0
0.0329105 0.0264178 0
0.0285019 0.026444 0
0.0231435 0.0157135 0
0.0148117 0.023172 0
0.0231435 0.0157135 0
0.0285019 0.026444 0
0.0234958 0.031731 0
0.0184221 0.0320717 0
0.0148117 0.023172 0
0.0365507 0 0
0.0370564 0 0
0.0443622 0.0135587 0
0.0424157 0.0179184 0
0.0379588 0.0184611 0
0.0313462 0.0126744 0
0.0365507 0 0
0.0370564 0 0
0.0514702 0 0
0.0513526 0.00989549 0
0.0443622 0.0135587 0
0.0370564 0 0
0.0513526 0.00989549 0
0.0514702 0 0
0.0621631 0 0
0.061682 0.0130519 0
0.0580297 0.0140477 0
0.0513526 0.00989549 0
0.285641 0.462555 0
0.287278 0.45255 0
0.292803 0.450154 0
0.299655 0.455081 0
0.299166 0.46241 0
0.290892 0.465719 0
0.285641 0.462555 0
0.947684 0.268714 0
0.956914 0.278839 0
0.954791 0.283018 0
0.947731 0.285671 0
0.943754 0.28395 0
0.944687 0.271066 0
0.947684 0.268714 0
0.0424157 0.0179184 0
0.0443622 0.0135587 0
0.0513526 0.00989549 0
0.0580297 0.0140477 0
0.0540403 0.0225467 0
0.0459058 0.0222211 0
0.0424157 0.0179184 0
0.0329105 0.0264178 0
0.0379588 0.0184611 0
0.0424157 0.0179184 0
0.0459058 0.0222211 0
0.0438617 0.0317896 0
0.0386718 0.0333675 0
0.0329105 0.0264178 0
0.299655 0.455081 0
0.306669 0.451339 0
0.313543 0.456658 0
0.31183 0.464678 0
0.304368 0.466736 0
0.299166 0.46241 0
0.299655 0.455081 0
0.954791 0.283018 0
0.956914 0.278839 0
0.96139 0.27685 0
0.966851 0.27953 0
0.96819 0.291298 0
0.968069 0.291447 0
0.961923 0.292625 0
0.954791 0.283018 0
0.0547075 0.0343319 0
0.0570415 0.0273327 0
0.0666969 0.0259082 0
0.0691478 0.036173 0
0.0618341 0.0392638 0
0.0547075 0.0343319 0
0.96657 0.265141 0
0.968037 0.259765 0
0.978653 0.256058 0
0.980609 0.269158 0
0.976314 0.271684 0
0.96657 0.265141 0
0.978653 0.256058 0
0.979211 0.255247 0
0.986876 0.254683 0
0.991475 0.262645 0
0.986344 0.27001 0
0.980609 0.269158 0
0.978653 0.256058 0
0.0547075 0.0343319 0
0.0505829 0.0359804 0
0.0438617 0.0317896 0
0.0459058 0.0222211 0
0.0540403 0.0225467 0
0.0570415 0.0273327 0
0.0547075 0.0343319 0
0.986344 0.27001 0
0.991475 0.262645 0
1 0.262978 0
1 0.274739 0
0.989485 0.275093 0
0.986344 0.27001 0
0.371705 0.908366 0
0.376729 0.91267 0
0.375796 0.923096 0
0.375447 0.923387 0
0.368254 0.924101 0
0.361532 0.918142 0
0.3632 0.910422 0
0.371705 0.908366 0
0.0570415 0.0273327 0
0.0540403 0.0225467 0
0.0580297 0.0140477 0
0.061682 0.0130519 0
0.0637399 0.0139758 0
0.0678943 0.0240629 0
0.0666969 0.0259082 0
0.0570415 0.0273327 0
0.00423363 0.0454621 0
0.0104052 0.0359026 0
0.0150768 0.0356161 0
0.0186357 0.0458348 0
0.0167464 0.0486906 0
0.0113756 0.0500332 0
0.00423363 0.0454621 0
1 0.250671 0
1 0.262978 0
0.991475 0.262645 0
0.986876 0.254683 0
0.990336 0.249782 0
1 0.250671 0
0 0.0268061 0
0.00347368 0.0271487 0
0.0104052 0.0359026 0
0.00423363 0.0454621 0
0 0.0462502 0
0 0.0268061 0
0.264832 0.929655 0
0.266747 0.94037 0
0.26052 0.945059 0
0.253778 0.943158 0
0.251687 0.933045 0
0.255604 0.929238 0
0.264832 0.929655 0
0.96819 0.291298 0
0.966851 0.27953 0
0.975249 0.276258 0
0.980514 0.28325 0
0.97868 0.28851 0
0.96819 0.291298 0
0.0234958 0.031731 0
0.0285019 0.026444 0
0.0329105 0.0264178 0
0.0386718 0.0333675 0
0.037006 0.0376124 0
0.0287979 0.0398971 0
0.0234958 0.031731 0
0.274119 0.942619 0
0.280148 0.937202 0
0.288617 0.939191 0
0.288583 0.950105 0
0.282399 0.953894 0
0.276409 0.951576 0
0.274119 0.942619 0
0.963148 0.266995 0
0.96657 0.265141 0
0.976314 0.271684 0
0.975249 0.276258 0
0.966851 0.27953 0
0.96139 0.27685 0
0.963148 0.266995 0
0.0150768 0.0356161 0
0.0184221 0.0320717 0
0.0234958 0.031731 0
0.0287979 0.0398971 0
0.0264922 0.0446355 0
0.0186357 0.0458348 0
0.0150768 0.0356161 0
0.987323 0.281163 0
0.989485 0.275093 0
1 0.274739 0
1 0.288244 0
0.993835 0.288484 0
0.987323 0.281163 0
0.259315 0.472844 0
0.265862 0.470133 0
0.271394 0.473483 0
0.268916 0.485408 0
0.262472 0.486191 0
0.25849 0.483361 0
0.259315 0.472844 0
0.975249 0.276258 0
0.976314 0.271684 0
0.980609 0.269158 0
0.986344 0.27001 0
0.989485 0.275093 0
0.987323 0.281163 0
0.980514 0.28325 0
0.975249 0.276258 0
0 0.0462502 0
0.00423363 0.0454621 0
0.0113756 0.0500332 0
0.0092677 0.0606126 0
0 0.0583986 0
0 0.0462502 0
0.24442 0.47815 0
0.252372 0.46863 0
0.259315 0.472844 0
0.25849 0.483361 0
0.25119 0.485097 0
0.24442 0.47815 0
0.943754 0.28395 0
0.947731 0.285671 0
0.948465 0.296706 0
0.94695 0.298247 0
0.937775 0.296542 0
0.935172 0.291968 0
0.938535 0.285347 0
0.943754 0.28395 0
0.00965302 0.0610974 0
0.0092677 0.0606126 0
0.0113756 0.0500332 0
0.0167464 0.0486906 0
0.023091 0.0597809 0
0.022507 0.0613512 0
0.0183733 0.0631891 0
0.00965302 0.0610974 0
0.271394 0.473483 0
0.277197 0.472441 0
0.282633 0.477885 0
0.281201 0.485983 0
0.273545 0.488366 0
0.268916 0.485408 0
0.271394 0.473483 0
0.958781 0.297056 0
0.961923 0.292625 0
0.968069 0.291447 0
0.972495 0.302779 0
0.967586 0.307025 0
0.960742 0.304309 0
0.958781 0.297056 0
0.0167464 0.0486906 0
0.0186357 0.0458348 0
0.0264922 0.0446355 0
0.031044 0.0524063 0
0.0306628 0.0547996 0
0.023091 0.0597809 0
0.0167464 0.0486906 0
0.947731 0.285671 0
0.954791 0.283018 0
0.961923 0.292625 0
0.958781 0.297056 0
0.948465 0.296706 0
0.947731 0.285671 0
0.0312187 0.0695498 0
0.0294666 0.0692932 0
0.022507 0.0613512 0
0.023091 0.0597809 0
0.0306628 0.0547996 0
0.0376966 0.0612343 0
0.0374395 0.0648729 0
0.0312187 0.0695498 0
0.248019 0.492563 0
0.25119 0.485097 0
0.25849 0.483361 0
0.262472 0.486191 0
0.260414 0.497901 0
0.25457 0.498962 0
0.248019 0.492563 0
0.0264922 0.0446355 0
0.0287979 0.0398971 0
0.037006 0.0376124 0
0.0418038 0.0457247 0
0.031044 0.0524063 0
0.0264922 0.0446355 0
0.937775 0.296542 0
0.94695 0.298247 0
0.947776 0.307219 0
0.936995 0.310635 0
0.933313 0.305378 0
0.937775 0.296542 0
0.273545 0.488366 0
0.281201 0.485983 0
0.286413 0.490406 0
0.285545 0.499306 0
0.279293 0.501516 0
0.273073 0.497727 0
0.273545 0.488366 0
0.037006 0.0376124 0
0.0386718 0.0333675 0
0.0438617 0.0317896 0
0.0505829 0.0359804 0
0.048629 0.0443165 0
0.0436441 0.0463816 0
0.0418038 0.0457247 0
0.037006 0.0376124 0
0.935881 0.317612 0
0.936995 0.310635 0
0.947776 0.307219 0
0.952175 0.311093 0
0.952439 0.313079 0
0.946005 0.320289 0
0.935881 0.317612 0
0.048629 0.0443165 0
0.0505829 0.0359804 0
0.0547075 0.0343319 0
0.0618341 0.0392638 0
0.0604893 0.0478407 0
0.0558097 0.0487639 0
0.048629 0.0443165 0
0.948465 0.296706 0
0.958781 0.297056 0
0.960742 0.304309 0
0.952175 0.311093 0
0.947776 0.307219 0
0.94695 0.298247 0
0.948465 0.296706 0
0.262472 0.486191 0
0.268916 0.485408 0
0.273545 0.488366 0
0.273073 0.497727 0
0.265284 0.501105 0
0.260414 0.497901 0
0.262472 0.486191 0
0.031044 0.0524063 0
0.0418038 0.0457247 0
0.0436441 0.0463816 0
0.0444733 0.0569806 0
0.0376966 0.0612343 0
0.0306628 0.0547996 0
0.031044 0.0524063 0
0.960742 0.304309 0
0.967586 0.307025 0
0.968342 0.313581 0
0.958965 0.318334 0
0.952439 0.313079 0
0.952175 0.311093 0
0.960742 0.304309 0
0.282633 0.477885 0
0.29137 0.475288 0
0.295228 0.477869 0
0.294462 0.487834 0
0.286413 0.490406 0
0.281201 0.485983 0
0.282633 0.477885 0
0.97868 0.28851 0
0.983306 0.295355 0
0.977385 0.303157 0
0.972495 0.302779 0
0.968069 0.291447 0
0.96819 0.291298 0
0.97868 0.28851 0
0.0374395 0.0648729 0
0.0376966 0.0612343 0
0.0444733 0.0569806 0
0.0521645 0.0604313 0
0.0526796 0.0613833 0
0.0482776 0.0709144 0
0.0465031 0.0711088 0
0.0374395 0.0648729 0
0.290892 0.465719 0
0.299166 0.46241 0
0.304368 0.466736 0
0.302893 0.475918 0
0.295228 0.477869 0
0.29137 0.475288 0
0.290892 0.465719 0
0.987909 0.295692 0
0.993835 0.288484 0
1 0.288244 0
1 0.303532 0
0.992784 0.303366 0
0.987909 0.295692 0
0.0521645 0.0604313 0
0.0558097 0.0487639 0
0.0604893 0.0478407 0
0.0633065 0.0499533 0
0.0639388 0.0611404 0
0.0613145 0.0630562 0
0.0526796 0.0613833 0
0.0521645 0.0604313 0
0.97868 0.28851 0
0.980514 0.28325 0
0.987323 0.281163 0
0.993835 0.288484 0
0.987909 0.295692 0
0.983306 0.295355 0
0.97868 0.28851 0
0.280103 0.464282 0
0.285641 0.462555 0
0.290892 0.465719 0
0.29137 0.475288 0
0.282633 0.477885 0
0.277197 0.472441 0
0.280103 0.464282 0
0.0436441 0.0463816 0
0.048629 0.0443165 0
0.0558097 0.0487639 0
0.0521645 0.0604313 0
0.0444733 0.0569806 0
0.0436441 0.0463816 0
0.967586 0.307025 0
0.972495 0.302779 0
0.977385 0.303157 0
0.981512 0.308989 0
0.97674 0.317115 0
0.9733 0.317325 0
0.968342 0.313581 0
0.967586 0.307025 0
0.302893 0.475918 0
0.304368 0.466736 0
0.31183 0.464678 0
0.317184 0.469393 0
0.31545 0.477905 0
0.30769 0.479648 0
0.302893 0.475918 0
0.0678943 0.0240629 0
0.0637399 0.0139758 0
0.0729928 0.0100791 0
0.0780631 0.0134229 0
0.0753082 0.0229257 0
0.0678943 0.0240629 0
0.983306 0.295355 0
0.987909 0.295692 0
0.992784 0.303366 0
0.987888 0.309313 0
0.981512 0.308989 0
0.977385 0.303157 0
0.983306 0.295355 0
0.0621631 0 0
0.0721816 0 0
0.0729928 0.0100791 0
0.0637399 0.0139758 0
0.061682 0.0130519 0
0.0621631 0 0
0.992784 0.303366 0
1 0.303532 0
1 0.317766 0
0.991817 0.317643 0
0.987888 0.309313 0
0.992784 0.303366 0
0.0729928 0.0100791 0
0.0721816 0 0
0.083811 0 0
0.0830281 0.0120926 0
0.0780631 0.0134229 0
0.0729928 0.0100791 0
0.286413 0.490406 0
0.294462 0.487834 0
0.299768 0.49165 0
0.298233 0.500929 0
[...]
CELL_DATA 6400
FIELD FieldData 3
weight 1 6400 float
 0.05504 0.0551279 0.0552126 0.0550663 0.0551329 0.0551274 0.0552514 0.0551954 0.0552997 0.0553564 0.0554444 0.0544257 0.0544052 0.0554124 0.0553282 0.0544776 0.0542871 0.0555255 0.0543682 0.0543252 0.0554188 0.0542234 0.0493771 0.0555011 0.0551412 0.0543137 0.0550899 0.0486977 0.0542451 0.0552706 0.0487199 0.0543338 0.0552143 0.0541391 0.0540755 0.0542297 0.0551014 0.0540282 0.0543445 0.0551682 0.054098 0.05417 0.055231 0.0542943 0.0552772 0.0538866 0.0553094 0.0542916 0.0539636 0.0553673 0.054203 0.0554708 0.0542208 0.0539175 0.0553516 0.0541201 0.0541306 0.0541448 0.0553899 0.0543128 0.0540297 0.0555004 0.0541334 0.0542502 0.0554318 0.0540436 0.0543439 0.0555843 0.0540417 0.0555305 0.0539297 0.0556205 0.0540075 0.0557584 0.0557092 0.0544905 0.0540421 0.0556089 0.0557119 0.0541723 0.0545201 0.0557954 0.054789 0.0543964 0.0556773 0.055796 0.0546188 0.0544004 0.0558769 0.0546734 0.0560029 0.0542894 0.0559517 0.0545008 0.0543985 0.0558513 0.0547218 0.0543313 0.0558827 0.0545451 0.0559268 0.0542694 0.0559857 0.0548836 0.0542014 0.0555683 0.0547617 0.0543132 0.0556632 0.0557561 0.0542273 0.0548144 0.0555912 0.0540952 0.0549156 0.0557371 0.054188 0.0556814 0.0546086 0.0558074 0.0543795 0.0546455 0.0558833 0.0543842 0.0546794 0.056024 0.0542613 0.0542043 0.0559653 0.0543709 0.0542729 0.0558877 0.0542544 0.0542732 0.0558248 0.0544282 0.0559423 0.0541478 0.0559885 0.0540787 0.0541561 0.0551563 0.0551089 0.0541215 0.0541318 0.0552174 0.0541614 0.0552638 0.0543021 0.0550822 0.0540171 0.0544841 0.0551285 0.0550725 0.0540637 0.0543635 0.0552161 0.0551764 0.0545138 0.0539181 0.0553392 0.0540476 0.0553876 0.0541916 0.0554722 0.0541486 0.0552861 0.0543824 0.0554023 0.054099 0.0554791 0.0542365 0.0540316 0.0550462 0.0539796 0.0551799 0.0556779 0.0551083 0.054019 0.0550135 0.0556236 0.0540703 0.0550704 0.0539024 0.0557323 0.0551303 0.0539462 0.0556006 0.0553501 0.0539548 0.0552985 0.0555494 0.0538346 0.0552501 0.0537611 0.0554176 0.0554065 0.0538665 0.0552081 0.0555213 0.0537282 0.0552353 0.0538491 0.0554599 0.0554036 0.0539794 0.055652 0.0553238 0.0538101 0.0557032 0.0555666 0.0539211 0.0556437 0.055573 0.0557347 0.0538961 0.0556607 0.0556096 0.053813 0.0555744 0.0552911 0.0537055 0.0555792 0.0552574 0.0537878 0.0554933 0.0552901 0.0537122 0.0556926 0.0553773 0.0536287 0.0558161 0.0551298 0.0536753 0.0558589 0.0551417 0.0559379 0.0536246 0.0557716 0.0535401 0.0554334 0.0558385 0.0535805 0.0553174 0.0559299 0.0554663 0.0554998 0.0555487 0.0554678 0.0549427 0.0556106 0.0551845 0.0556399 0.0549002 0.0551662 0.0554848 0.0553273 0.0548121 0.0553896 0.0555417 0.0557363 0.0556983 0.0558891 0.0557991 0.0556217 0.0557326 0.0557651 0.0557695 0.0488005 0.0548034 0.055843 0.0561021 0.0486081 0.0558194 0.0546766 0.0560299 0.0484929 0.0557354 0.0561649 0.054748 0.0561805 0.048498 0.0558584 0.056084 0.048907 0.0546896 0.0560695 0.0555857 0.048941 0.0547324 0.0561446 0.0557043 0.0487902 0.0562249 0.0546216 0.0556003 0.0562418 0.0485913 0.0545466 0.0562657 0.05578 0.0545984 0.0563382 0.0487344 0.054525 0.0564084 0.0558183 0.0483772 0.0544391 0.0563052 0.0482411 0.0563318 0.0557136 0.0546817 0.0481445 0.0563917 0.0545314 0.0556905 0.0479327 0.0560642 0.0545765 0.0556474 0.0481315 0.0561325 0.048009 0.054635 0.0555957 0.0562083 0.0483831 0.0554588 0.0560853 0.0545534 0.0484169 0.0555092 0.0561532 0.0485325 0.0544152 0.0553334 0.0562297 0.0483006 0.0543691 0.0561722 0.0551962 0.048096 0.0544577 0.0562881 0.0481746 0.0552548 0.0544114 0.0563616 0.0489558 0.0552066 0.0543516 0.056412 0.0489832 0.0562519 0.055357 0.0543072 0.0487775 0.0563018 0.0488361 0.0555396 0.0542471 0.0563755 0.0490142 0.0563408 0.0554491 0.0544942 0.0490799 0.0564899 0.0544611 0.0564835 0.0554965 0.0492156 0.0564134 0.0543818 0.0553944 0.0565501 0.0488725 0.0544097 0.0565595 0.0553115 0.0490152 0.0565123 0.0543268 0.0488683 0.0553443 0.0564595 0.0543843 0.0486058 0.0565935 0.0550082 0.0543504 0.0565303 0.0486437 0.0549743 0.0485158 0.0542477 0.0565938 0.0548457 0.0484127 0.0541903 0.0566193 0.0482401 0.055018 0.0566348 0.0542763 0.0482831 0.0566797 0.0487023 0.0547201 0.0541569 0.0566885 0.0487977 0.0542799 0.0547405 0.0566466 0.048659 0.0542943 0.0548746 0.048327 0.0567382 0.0542455 0.0548962 0.0485734 0.0566992 0.0541594 0.0550394 0.0484347 0.0564444 0.0484034 0.0550505 0.0541944 0.0564903 0.0547783 0.0541473 0.0498004 0.0565709 0.0540349 0.0549171 0.0498164 0.0564174 0.0541101 0.0564937 0.0549074 0.04998 0.0540685 0.0564446 0.0545785 0.0496573 0.0540203 0.0565722 0.0545488 0.0498096 0.0565346 0.0538507 0.0546172 0.0498538 0.0566393 0.0539733 0.0544242 0.0499331 0.0542462 0.0567241 0.049683 0.0544631 0.0566894 0.0544098 0.054647 0.0566083 0.0497047 0.0542686 0.0547827 0.0566339 0.0547144 0.0495292 0.0541596 0.0566912 0.0496474 0.0541021 0.0544372 0.0566739 0.0493912 0.0540998 0.0561099 0.0544793 0.0493993 0.0542121 0.0560659 0.0545884 0.049504 0.0541425 0.0495284 0.056 0.054546 0.0541176 0.0494946 0.0561958 0.0550658 0.0539458 0.056068 0.0495534 0.0551246 0.0540635 0.0559803 0.0494061 0.0550818 0.0561449 0.0539973 0.0493788 0.0561555 0.0549371 0.0498737 0.0498979 0.0499538 0.049757 0.0497881 0.0496506 0.0499412 0.0538856 0.049958 0.056268 0.0497911 0.0549498 0.0540197 0.0563435 0.0497974 0.0562962 0.0551748 0.0538974 0.0496284 0.0563739 0.0539648 0.0550432 0.0495015 0.056232 0.0552005 0.0562199 0.0493741 0.0538059 0.0563189 0.0550793 0.0494797 0.0559404 0.054887 0.0493479 0.0538063 0.0560772 0.0550206 0.0496533 0.0539344 0.0560505 0.0548565 0.0496322 0.0558907 0.0537601 0.04954 0.0549292 0.0559847 0.0538041 0.0548058 0.0496479 0.0559197 0.0537982 0.0546571 0.0495026 0.0560274 0.0547898 0.0536852 0.0493694 0.0561511 0.0547097 0.0562526 0.0536403 0.0494804 0.0544928 0.0562702 0.0536424 0.0492504 0.0561924 0.0545036 0.0540464 0.0491156 0.0561217 0.0538983 0.0492717 0.0546435 0.0561155 0.0540326 0.0492449 0.0547363 0.056043 0.0538903 0.0489212 0.0547735 0.0562073 0.0539301 0.0490528 0.0564543 0.0545636 0.0489278 0.0537561 0.056519 0.0491065 0.053898 0.0565471 0.054601 0.0492533 0.0564759 0.0538778 0.0564153 0.0492489 0.0546381 0.056408 0.0490926 0.0537365 0.0563427 0.0537725 0.0491033 0.0572482 0.0564899 0.0486971 0.0537554 0.0572652 0.0572459 0.0566032 0.0487336 0.0536385 0.0572753 0.0487247 0.0572768 0.056667 0.0537945 0.0484821 0.0565546 0.057278 0.0536517 0.0485191 0.0572773 0.0484921 0.0536343 0.05662 0.0572643 0.0489208 0.0572508 0.0537528 0.0565765 0.0572689 0.0489341 0.05635 0.0572519 0.0564277 0.0489561 0.0572603 0.0535019 0.0572244 0.0487751 0.056276 0.0572709 0.0535243 0.0487353 0.05628 0.0572484 0.048516 0.0535192 0.0572582 0.0563451 0.0487429 0.0536199 0.0563543 0.0485577 0.0572773 0.0534894 0.0564975 0.0492509 0.0572674 0.0565265 0.057261 0.0534121 0.0492048 0.0572428 0.0535018 0.0491601 0.0566007 0.0572395 0.0491094 0.0565518 0.0533358 0.0489956 0.0572092 0.0564099 0.0533561 0.0493365 0.0564757 0.0572151 0.0492048 0.054231 0.0572183 0.0564267 0.0572522 0.0541257 0.0492926 0.0564888 0.0572486 0.0490454 0.0540336 0.0550053 0.0572485 0.049136 0.054965 0.0572342 0.0541305 0.0572297 0.0489844 0.055073 0.0539428 0.0571973 0.0488213 0.0549624 0.0572246 0.0539985 0.0549233 0.0488468 0.0572055 0.0550477 0.0485592 0.054025 0.0572 0.0549653 0.0571898 0.0485576 0.0538485 0.0572409 0.048758 0.0551668 0.0539703 0.0572392 0.0485877 0.0551162 0.0572213 0.053909 0.0489664 0.0572256 0.0551671 0.0539212 0.0571949 0.0487792 0.0571763 0.055259 0.0538016 0.0571725 0.048962 0.0571493 0.0537786 0.0553287 0.0488007 0.0571598 0.0539041 0.0550471 0.057186 0.0485675 0.0551049 0.054044 0.0572014 0.0485824 0.0571759 0.0552072 0.0538751 0.0571511 0.0552247 0.0539511 0.0543678 0.0572345 0.0548638 0.0538117 0.057236 0.0548825 0.0543994 0.0572177 0.0537702 0.0549072 0.0572174 0.0537594 0.0543364 0.0549773 0.0572067 0.0538004 0.0548304 0.0571981 0.0547925 0.0536881 0.0542271 0.057178 0.0547387 0.0536494 0.057193 0.0548853 0.0542474 0.0536437 0.0571733 0.0550368 0.0571917 0.0535273 0.0541853 0.0571589 0.055125 0.0537374 0.0544048 0.0571506 0.0549791 0.0571661 0.0538148 0.0550595 0.0544748 0.057133 0.0536042 0.0543039 0.0554264 0.0535881 0.0571342 0.0553908 0.0544402 0.0537184 0.0571845 0.0554928 0.0536504 0.0542565 0.0571911 0.055295 0.0535247 0.0571843 0.0553192 0.0541704 0.0535269 0.057114 0.0554495 0.0534904 0.0541293 0.0571463 0.0533464 0.0556588 0.0571039 0.0539906 0.053438 0.0555571 0.0571452 0.0533864 0.0540782 0.0571457 0.0556982 0.0534285 0.0571757 0.0532447 0.0539055 0.0555946 0.0571414 0.0536539 0.0539128 0.0554969 0.05718 0.0535216 0.0571102 0.0538527 0.0556349 0.0534535 0.0571144 0.0540183 0.0535739 0.0570997 0.0557407 0.0541173 0.0534579 0.0551847 0.0570315 0.0540224 0.053391 0.0553678 0.0570761 0.0533389 0.0552519 0.0538415 0.0570738 0.0531376 0.057037 0.0551311 0.0539387 0.0532833 0.0569925 0.0553304 0.0532143 0.0538873 0.0570316 0.0552183 0.0533244 0.0543379 0.05302 0.0554135 0.0569826 0.0531825 0.054253 0.05707 0.0555247 0.057025 0.0537041 0.0543715 0.0555309 0.0570255 0.053669 0.054227 0.0553241 0.0570683 0.0535536 0.0541994 0.055304 0.0569979 0.0535788 0.0541195 0.0554205 0.0569678 0.0542708 0.0536094 0.0569883 0.0554545 0.05467 0.057128 0.0534246 0.0542877 0.0546967 0.0535357 0.0571572 0.0548173 0.0541315 0.0535383 0.0571202 0.0547793 0.0540029 0.0571469 0.0534182 0.0545974 0.0570949 0.0534196 0.0541367 0.0546793 0.0570645 0.0534203 0.0546473 0.0570723 0.0540135 0.0532817 0.0547435 0.0570491 0.0540872 0.0532971 0.0549571 0.057128 0.0539754 0.0533308 0.05489 0.0571037 0.0539912 0.0549091 0.0534836 0.0571035 0.0540789 0.0550386 0.0534418 0.0570897 0.0538326 0.05329 0.0548008 0.0570572 0.0537756 0.0547451 0.0570439 0.0539048 0.0531959 0.057018 0.0548368 0.0539859 0.0531567 0.0545532 0.0570002 0.0538687 0.0533029 0.0544889 0.0570143 0.0538787 0.0531467 0.0570014 0.0545786 0.0537446 0.0531774 0.0546103 0.0569447 0.0544737 0.0538394 0.0569796 0.0530483 0.0543842 0.0537512 0.0569626 0.0531655 0.0545232 0.0569851 0.0537645 0.0530095 0.0570218 0.0545076 0.053715 0.0569555 0.0547404 0.0530585 0.0537546 0.0548591 0.0569513 0.0533914 0.0536275 0.0547589 0.0568985 0.0533192 0.0536212 0.0569318 0.0531972 0.0545527 0.0568779 0.0535839 0.0568966 0.0532277 0.0538069 0.0571126 0.0546401 0.0536948 0.0571036 0.0532493 0.0536894 0.0570495 0.0546428 0.0530944 0.0570807 0.053755 0.0546998 0.0570723 0.0530505 0.0535426 0.0550995 0.057136 0.0531343 0.0535641 0.0571171 0.0528924 0.0552026 0.0571117 0.0530661 0.0535009 0.05498 0.0570833 0.0530328 0.0534498 0.0570436 0.0549669 0.0528453 0.0534872 0.0570044 0.0527625 0.0550698 0.056997 0.0533573 0.0529635 0.0550358 0.0569514 0.0533625 0.0530975 0.057051 0.0551943 0.0570517 0.0529524 0.0552486 0.0533078 0.0570193 0.0528506 0.05341 0.0569918 0.0553034 0.0534412 0.0571238 0.0528437 0.055369 0.0571374 0.0532843 0.0551382 0.0527789 0.0570666 0.0533153 0.0551855 0.057104 0.052934 0.0532406 0.0570817 0.0552248 0.0527743 0.0536215 0.0570688 0.0549319 0.0527452 0.0536885 0.0549633 0.0570924 0.0528988 0.053649 0.0570449 0.0526123 0.0547448 0.053541 0.0570904 0.052643 0.0548133 0.0534968 0.057046 0.0526831 0.0535389 0.0570186 0.0548747 0.056982 0.052494 0.0537061 0.0548645 0.057017 0.0524847 0.0535871 0.0549732 0.0570081 0.0522182 0.0569619 0.0535008 0.0550733 0.0569807 0.0524147 0.0536188 0.056937 0.0550977 0.0524427 0.0568968 0.0534451 0.0550956 0.0569055 0.0522413 0.0534754 0.0568606 0.0549942 0.0520904 0.053363 0.0568502 0.0569351 0.0520518 0.053372 0.0548708 0.0569592 0.0534191 0.0523153 0.0569671 0.0549815 0.0534342 0.0569217 0.0525853 0.053303 0.0558387 0.0568918 0.0524804 0.0532761 0.0568022 0.0558149 0.0567831 0.0526793 0.0531774 0.0567713 0.0533241 0.0559497 0.0527183 0.0568293 0.0533393 0.0558716 0.0568531 0.0522918 0.0532306 0.0557452 0.0567533 0.0525271 0.053222 0.0557915 0.0567562 0.0531959 0.0525673 0.0559572 0.0568075 0.0518752 0.0560447 0.0569443 0.053115 0.0569104 0.0519279 0.0561179 0.0541528 0.0568756 0.0558679 0.0521321 0.0569123 0.0541583 0.0559627 0.0515462 0.0569243 0.0517188 0.0560141 0.0541624 0.0568763 0.0519684 0.0560304 0.0568667 0.0540213 0.0517561 0.0555717 0.0568315 0.0538873 0.0521181 0.0556404 0.0567833 0.0540218 0.0523866 0.0568204 0.055686 0.054046 0.0568333 0.0557431 0.0523434 0.0568111 0.0540295 0.0519094 0.0554952 0.0567406 0.0555499 0.0538976 0.0519787 0.0567747 0.0556583 0.0539081 0.0521734 0.0570622 0.055628 0.0537946 0.0521758 0.0570075 0.0558253 0.0538767 0.0570341 0.0528565 0.0557749 0.0570244 0.0537505 0.0528345 0.0558611 0.0569808 0.0559218 0.0537503 0.0527032 0.0569367 0.0559167 0.0536217 0.0526949 0.0569829 0.0557137 0.0536059 0.0569829 0.0557548 0.0530572 0.0569486 0.0536363 0.0558625 0.0569422 0.053771 0.0530353 0.0561923 0.0537616 0.0569048 0.0530439 0.0561943 0.0569613 0.0536516 0.0569241 0.0561127 0.0531506 0.0536246 0.056864 0.0562651 0.0535118 0.0528948 0.0569094 0.0561013 0.0534959 0.0569435 0.0528816 0.0561546 0.0539204 0.0568762 0.056175 0.0529099 0.0569308 0.0538629 0.0563315 0.0568951 0.0523857 0.0537938 0.0563138 0.0525662 0.0568379 0.0536959 0.0525066 0.0564086 0.0568171 0.0522774 0.053834 0.0568454 0.0563889 0.0522628 0.0568783 0.0562454 0.053832 0.0568206 0.0524565 0.0568605 0.0562325 0.0568074 0.0526593 0.0536693 0.0563025 0.0567813 0.0527486 0.0560111 0.056831 0.0536803 0.0560797 0.0527306 0.056771 0.0536842 0.0560482 0.05239 0.0567313 0.0558641 0.0525704 0.0535107 0.0567589 0.0559564 0.0525232 0.0568854 0.0535176 0.0559546 0.0515492 0.0568677 0.0535282 0.0561434 0.0513469 0.0568361 0.0517091 0.0536642 0.0568134 0.0562065 0.051558 0.0568205 0.0535507 0.051157 0.0562195 0.0567678 0.0533869 0.0513402 0.0561245 0.0567665 0.0534016 0.0513718 0.0560395 0.0567766 0.053364 0.0517612 0.0567926 0.0560357 0.0535345 0.0518846 0.0561161 0.0566963 0.0515325 0.0533586 0.0554722 0.0567333 0.0516873 0.0567182 0.053264 0.0554163 0.051667 0.0567091 0.0533993 0.0555268 0.0509478 0.0566518 0.055579 0.0532203 0.0511693 0.0553208 0.050993 0.0566619 0.0532231 0.0507479 0.0567122 0.0553293 0.0534832 0.0507738 0.0567717 0.0554279 0.056662 0.0536143 0.0509165 0.0554273 0.0567228 0.0510745 0.0534856 0.0556384 0.0512775 0.0566933 0.0533627 0.0556656 0.0514127 0.056638 0.0533612 0.0557767 0.0514592 0.0566671 0.0534825 0.0555604 0.051176 0.0566171 0.0533551 0.055549 0.0566006 0.0511864 0.0556521 0.0533822 0.0565906 0.0520699 0.0533658 0.0552368 0.0565455 0.0532296 0.0518719 0.0552191 0.0532258 0.0565301 0.0520622 0.055315 0.0532424 0.0521999 0.0551681 0.0569251 0.0532548 0.0520233 0.0532458 0.0518319 0.0569508 0.0550354 0.0531289 0.0518145 0.056931 0.0551199 0.0531283 0.0522831 0.0568721 0.0530103 0.055198 0.0522595 0.0568974 0.0531161 0.0553016 0.0568758 0.053111 0.0523997 0.0554277 0.0530929 0.0569324 0.0554367 0.0520209 0.0530025 0.0569031 0.0555472 0.0521256 0.0529768 0.0569557 0.0553224 0.0529824 0.0520962 0.0569157 0.0515939 0.0532537 0.0553486 0.0568784 0.0516138 0.0532623 0.0568513 0.0554476 0.0516406 0.0531284 0.0568431 0.0558629 0.0531324 0.0514079 0.0568697 0.0531221 0.0557573 0.0512376 0.0568395 0.0530073 0.0559584 0.0568578 0.051385 0.0530131 0.0558631 0.0568155 0.0514745 0.0530922 0.0556544 0.056833 0.0518515 0.0557696 0.0567755 0.053071 0.0557068 0.0517099 0.056801 0.051946 0.05582 0.0529967 0.0567757 0.0559398 0.0518133 0.0567951 0.0528196 0.0568176 0.0560199 0.0529388 0.0515943 0.056802 0.0530038 0.0560078 0.0518479 0.0567574 0.0528846 0.0559074 0.0567808 0.0528932 0.0516451 0.055908 0.0567444 0.0527696 0.0556195 0.0569003 0.0531471 0.0527764 0.0555709 0.0569204 0.0531659 0.0557287 0.0528708 0.0569029 0.0528859 0.0532821 0.0554823 0.0568656 0.0527006 0.0568563 0.0530144 0.0554905 0.0526308 0.0568242 0.0530031 0.0556017 0.0527479 0.0568249 0.0532595 0.056804 0.0556168 0.0525817 0.0532903 0.0568502 0.0558124 0.0568448 0.0534265 0.0532138 0.0557162 0.0532731 0.0568199 0.0531536 0.0558993 0.056791 0.0530886 0.0532231 0.0558139 0.0567538 0.053107 0.0529802 0.0557183 0.0568018 0.053146 0.0567854 0.0530576 0.0526959 0.0567617 0.053071 0.0557892 0.0567574 0.0528698 0.0529246 0.0567415 0.0528097 0.0557769 0.05672 0.053186 0.052895 0.0567789 0.0567077 0.0531397 0.0567303 0.0566948 0.0525358 0.0568272 0.0530939 0.0567372 0.0567797 0.0525636 0.0567196 0.0568234 0.0529845 0.0567763 0.0526995 0.0567946 0.0530393 0.0566971 0.0529394 0.0529538 0.0567379 0.0566688 0.0530048 0.0566868 0.0568503 0.0529476 0.0528987 0.056869 0.056634 0.0568801 0.0527607 0.0528405 0.0568857 0.0567611 0.0528101 0.0569341 0.0527315 0.0567367 0.0569434 0.0527726 0.0525616 0.0569025 0.0567452 0.0527158 0.0569887 0.0567022 0.0535121 0.0526207 0.056981 0.0569455 0.0528304 0.0535148 0.0567129 0.0527762 0.0567843 0.0567243 0.0532489 0.0527278 0.056791 0.0566975 0.0533851 0.0528901 0.0568286 0.0567322 0.0526702 0.0567161 0.0533772 0.0567296 0.052556 0.0567023 0.0567449 0.0535592 0.0567009 0.0526022 0.0568218 0.0566792 0.0535805 0.0566609 0.0567825 0.0531492 0.0566594 0.0567999 0.0535808 0.0530578 0.0568769 0.0566729 0.0529946 0.0566362 0.0568744 0.0534095 0.0528979 0.0569254 0.0566818 0.0529477 0.0569744 0.0534216 0.0566418 0.0569312 0.0530761 0.0534416 0.0568969 0.0530059 0.0566148 0.0530956 0.0568498 0.0530951 0.0569166 0.0531003 0.0566167 0.0528502 0.0569493 0.056624 0.0570018 0.0532204 0.0529743 0.0566612 0.0569697 0.05664 0.0529768 0.0528829 0.0569893 0.0566173 0.0528262 0.0570374 0.0528404 0.0566051 0.0570409 0.0529996 0.0527434 0.0565879 0.0570174 0.0528896 0.0527821 0.0570393 0.0565959 0.0525713 0.0570698 0.0532632 0.0526751 0.056554 0.057074 0.0531427 0.0526308 0.0570836 0.056665 0.0570731 0.0526877 0.0532814 0.0566769 0.0571471 0.052745 0.0566498 0.0530224 0.0571126 0.0566256 0.0525229 0.05712 0.0531541 0.0566336 0.0571019 0.0525852 0.0566096 0.0524036 0.0571027 0.0566575 0.0523928 0.0525585 0.0571341 0.0566174 0.0524669 0.0524158 0.0570129 0.0566043 0.0570509 0.0522126 0.0522292 0.0565617 0.0570553 0.0570253 0.0524116 0.0523076 0.05652 0.0569918 0.0522214 0.0525353 0.0565698 0.0565836 0.0569559 0.052651 0.0524012 0.056546 0.0570004 0.0524402 0.052632 0.0565899 0.0570803 0.0523622 0.0525107 0.0565709 0.0570877 0.0521947 0.052371 0.0571306 0.0565268 0.0522225 0.0524931 0.0571405 0.0522765 0.0565304 0.0570468 0.0520141 0.0565533 0.0519825 0.0570743 0.05204 0.0565042 0.0521305 0.0571059 0.0565082 0.0522228 0.0519999 0.0570859 0.0564919 0.0517852 0.0566891 0.0564532 0.0519598 0.0519081 0.0567193 0.0564421 0.052098 0.0567454 0.0517397 0.0523308 0.0567676 0.0567697 0.0523163 0.0568135 0.0518079 0.0567868 0.051965 0.0566656 0.0520342 0.0567288 0.0521407 0.0520692 0.0567479 0.0566477 0.0522009 0.0567142 0.0518506 0.0567238 0.0566832 0.0568655 0.0520256 0.0518811 0.0566649 0.056824 0.0527213 0.0524936 0.0567023 0.0568851 0.052768 0.0523387 0.0567166 0.0567926 0.0526145 0.0567756 0.052355 0.0566562 0.0526628 0.0568283 0.0524418 0.0566365 0.0568385 0.0528546 0.0566223 0.052157 0.0566178 0.0529116 0.0565848 0.0521714 0.0566103 0.0566532 0.0530408 0.0523448 0.0566781 0.0566434 0.0527422 0.0565525 0.0524199 0.0566021 0.0522546 0.0565891 0.0527882 0.0564875 0.0521798 0.0565891 0.0527346 0.0565469 0.0565298 0.0522326 0.0528775 0.0565581 0.0566018 0.0524624 0.0519069 0.0564959 0.0567335 0.0519786 0.0523408 0.0565639 0.0567324 0.0520091 0.0525094 0.0565397 0.0567714 0.0525762 0.0564884 0.0517498 0.0566666 0.0522428 0.0564299 0.0566698 0.05178 0.0524109 0.0566717 0.0519547 0.0567142 0.0522881 0.0520842 0.0566219 0.056922 0.0520572 0.0524467 0.0566093 0.0569223 0.0525887 0.0518815 0.0569656 0.0565524 0.0569652 0.0526501 0.056571 0.0517617 0.0568699 0.0565291 0.052473 0.0518385 0.0568751 0.0564837 0.0569141 0.0525491 0.0564694 0.0530073 0.0570091 0.0505512 0.056522 0.0570137 0.0528911 0.0505848 0.0565026 0.0570495 0.0527802 0.0507554 0.0564576 0.0503717 0.0570544 0.0528914 0.0564449 0.050362 0.0569572 0.0527672 0.0564108 0.0569621 0.0505476 0.052873 0.0570082 0.0528855 0.0509776 0.0563715 0.0569992 0.0563566 0.052855 0.051016 0.056822 0.0527552 0.0565132 0.0568047 0.050613 0.0526142 0.0564595 0.0568674 0.0563847 0.05081