# vtk DataFile Version 3.0
vtk output
ASCII
DATASET UNSTRUCTURED_GRID
POINTS 44487 float
0 0 0
0.00635595 0 0
0.0100339 0.0129666 0
0.0088653 0.0159041 0
0.00805 0.0163893 0
0 0.0159256 0
0 0 0
0.00635595 0 0
0.0226592 0 0
0.0209386 0.00659138 0
0.0100339 0.0129666 0
0.00635595 0 0
0.0088653 0.0159041 0
0.0100339 0.0129666 0
0.0209386 0.00659138 0
0.0258669 0.0156242 0
0.0196008 0.0211737 0
0.0088653 0.0159041 0
0.0209386 0.00659138 0
0.0226592 0 0
0.027066 0 0
0.0348887 0.0134474 0
0.0313403 0.0161639 0
0.0258669 0.0156242 0
0.0209386 0.00659138 0
0 0.0159256 0
0.00805 0.0163893 0
0.00891484 0.0308917 0
0.00781168 0.031724 0
0 0.0328236 0
0 0.0159256 0
0.00805 0.0163893 0
0.0088653 0.0159041 0
0.0196008 0.0211737 0
0.0203266 0.0267693 0
0.016015 0.0311592 0
0.00891484 0.0308917 0
0.00805 0.0163893 0
0.0196008 0.0211737 0
0.0258669 0.0156242 0
0.0313403 0.0161639 0
0.0329101 0.0278454 0
0.0293778 0.0295061 0
0.0203266 0.0267693 0
0.0196008 0.0211737 0
0.016015 0.0311592 0
0.0203266 0.0267693 0
0.0293778 0.0295061 0
0.02635 0.0416779 0
0.0214924 0.0427917 0
0.016015 0.0311592 0
0.027066 0 0
0.0456007 0 0
0.0366114 0.0133996 0
0.0348887 0.0134474 0
0.027066 0 0
0.0427191 0.0169958 0
0.0366114 0.0133996 0
0.0456007 0 0
0.0484097 0 0
0.0505926 0.0132052 0
0.0427191 0.0169958 0
0.0484097 0 0
0.0590985 0 0
0.0589954 0.0136072 0
0.055828 0.0153605 0
0.0505926 0.0132052 0
0.0484097 0 0
0.97305 0.375656 0
0.975617 0.37156 0
0.986589 0.376848 0
0.985884 0.385239 0
0.976567 0.386257 0
0.97305 0.375656 0
0.400137 0.455705 0
0.407853 0.450829 0
0.414112 0.454157 0
0.414077 0.463662 0
0.407654 0.46749 0
0.400282 0.462285 0
0.400137 0.455705 0
0.0589954 0.0136072 0
0.0590985 0 0
0.0681689 0 0
0.0696802 0.0110033 0
0.065722 0.0144489 0
0.0589954 0.0136072 0
0.0433712 0.0246936 0
0.0427191 0.0169958 0
0.0505926 0.0132052 0
0.055828 0.0153605 0
0.0555246 0.0226802 0
0.0483655 0.0276176 0
0.0433712 0.0246936 0
0.963694 0.386657 0
0.962985 0.378604 0
0.97305 0.375656 0
0.976567 0.386257 0
0.973122 0.390654 0
0.963694 0.386657 0
0.425737 0.452126 0
0.436667 0.447795 0
0.440486 0.45066 0
0.441702 0.457188 0
0.434886 0.463715 0
0.428239 0.461564 0
0.425737 0.452126 0
0.0393326 0.0372507 0
0.0358423 0.0287198 0
0.0433712 0.0246936 0
0.0483655 0.0276176 0
0.0503273 0.0356971 0
0.0462501 0.0389371 0
0.0393326 0.0372507 0
0.380923 0.476346 0
0.390486 0.469633 0
0.397345 0.478861 0
0.39676 0.482046 0
0.387134 0.486957 0
0.384008 0.485257 0
0.380923 0.476346 0
0.98703 0.386692 0
1 0.383841 0
1 0.39888 0
0.987468 0.393228 0
0.98703 0.386692 0
0.0313403 0.0161639 0
0.0348887 0.0134474 0
0.0366114 0.0133996 0
0.0427191 0.0169958 0
0.0433712 0.0246936 0
0.0358423 0.0287198 0
0.0329101 0.0278454 0
0.0313403 0.0161639 0
0.390486 0.469633 0
0.390599 0.468778 0
0.400282 0.462285 0
0.407654 0.46749 0
0.407207 0.473551 0
0.397345 0.478861 0
0.390486 0.469633 0
0.388554 0.966009 0
0.3932 0.971716 0
0.385763 0.980214 0
0.375938 0.971085 0
0.376366 0.966099 0
0.376601 0.965918 0
0.388554 0.966009 0
0.986589 0.376848 0
0.98975 0.374287 0
1 0.376192 0
1 0.383841 0
0.98703 0.386692 0
0.985884 0.385239 0
0.986589 0.376848 0
0.368161 0.480299 0
0.376381 0.474574 0
0.380923 0.476346 0
0.384008 0.485257 0
0.372215 0.49129 0
0.369342 0.489143 0
0.368161 0.480299 0
0.055828 0.0153605 0
0.0589954 0.0136072 0
0.065722 0.0144489 0
0.0687207 0.0240047 0
0.0620193 0.0281609 0
0.0555246 0.0226802 0
0.055828 0.0153605 0
0.976567 0.386257 0
0.985884 0.385239 0
0.98703 0.386692 0
0.987468 0.393228 0
0.982058 0.39859 0
0.973771 0.394684 0
0.973122 0.390654 0
0.976567 0.386257 0
0.0483655 0.0276176 0
0.0555246 0.0226802 0
0.0620193 0.0281609 0
0.0607462 0.035607 0
0.0564762 0.0372709 0
0.0503273 0.0356971 0
0.0483655 0.0276176 0
0.369852 0.977207 0
0.375938 0.971085 0
0.385763 0.980214 0
0.385672 0.982182 0
0.381857 0.986016 0
0.373711 0.986788 0
0.369852 0.977207 0
0.372215 0.49129 0
0.384008 0.485257 0
0.387134 0.486957 0
0.388863 0.496829 0
0.379529 0.501046 0
0.373603 0.49708 0
0.372215 0.49129 0
0.973771 0.394684 0
0.982058 0.39859 0
0.982299 0.400611 0
0.977425 0.409796 0
0.971731 0.409749 0
0.968401 0.40007 0
0.973771 0.394684 0
0.00781168 0.031724 0
0.00891484 0.0308917 0
0.016015 0.0311592 0
0.0214924 0.0427917 0
0.0211605 0.0432145 0
0.0109945 0.0462788 0
0.00781168 0.031724 0
0.401935 0.96309 0
0.410844 0.963925 0
0.412116 0.969774 0
0.406009 0.97721 0
0.401678 0.97757 0
0.396362 0.971976 0
0.401935 0.96309 0
0 0.0328236 0
0.00781168 0.031724 0
0.0109945 0.0462788 0
0.0104398 0.0468929 0
0 0.0462943 0
0 0.0328236 0
0.958285 0.391066 0
0.963694 0.386657 0
0.973122 0.390654 0
0.973771 0.394684 0
0.968401 0.40007 0
0.961636 0.399465 0
0.958285 0.391066 0
0.387134 0.486957 0
0.39676 0.482046 0
0.403327 0.489673 0
0.402973 0.493194 0
0.391778 0.498501 0
0.388863 0.496829 0
0.387134 0.486957 0
0.3932 0.971716 0
0.396362 0.971976 0
0.401678 0.97757 0
0.398456 0.986102 0
0.395802 0.987021 0
0.385672 0.982182 0
0.385763 0.980214 0
0.3932 0.971716 0
0.982058 0.39859 0
0.987468 0.393228 0
1 0.39888 0
1 0.40206 0
0.991766 0.406274 0
0.982299 0.400611 0
0.982058 0.39859 0
0.0229539 0.0537337 0
0.0211605 0.0432145 0
0.0214924 0.0427917 0
0.02635 0.0416779 0
0.032156 0.0444065 0
0.0345627 0.0501577 0
0.033097 0.0535947 0
0.0288726 0.0559492 0
0.0229539 0.0537337 0
0.414077 0.463662 0
0.421777 0.467144 0
0.422809 0.474596 0
0.413998 0.479758 0
0.407207 0.473551 0
0.407654 0.46749 0
0.414077 0.463662 0
0.381857 0.986016 0
0.386364 1 0
0.373016 1 0
0.372258 0.9886 0
0.373711 0.986788 0
0.381857 0.986016 0
0.942729 0.410189 0
0.948103 0.409955 0
0.953334 0.419887 0
0.946174 0.426055 0
0.945695 0.426125 0
0.938204 0.415887 0
0.942729 0.410189 0
0.397345 0.478861 0
0.407207 0.473551 0
0.413998 0.479758 0
0.413693 0.484257 0
0.403327 0.489673 0
0.39676 0.482046 0
0.397345 0.478861 0
0.0293778 0.0295061 0
0.0329101 0.0278454 0
0.0358423 0.0287198 0
0.0393326 0.0372507 0
0.032156 0.0444065 0
0.02635 0.0416779 0
0.0293778 0.0295061 0
0.395802 0.987021 0
0.391195 1 0
0.386364 1 0
0.381857 0.986016 0
0.385672 0.982182 0
0.395802 0.987021 0
0.928601 0.404674 0
0.935406 0.400011 0
0.937172 0.400228 0
0.942729 0.410189 0
0.938204 0.415887 0
0.933189 0.416826 0
0.928601 0.404674 0
0.413998 0.479758 0
0.422809 0.474596 0
0.429854 0.478823 0
0.430302 0.480462 0
0.426526 0.48833 0
0.419472 0.49024 0
0.413693 0.484257 0
0.413998 0.479758 0
0 0.0613094 0
0.0113364 0.0566914 0
0.0147729 0.0586218 0
0.0160114 0.0629323 0
0.00685723 0.0700086 0
0 0.066984 0
0 0.0613094 0
0.398456 0.986102 0
0.407398 0.993628 0
0.40677 1 0
0.391195 1 0
0.395802 0.987021 0
0.398456 0.986102 0
0.948103 0.409955 0
0.952399 0.405301 0
0.957016 0.404925 0
0.963176 0.413676 0
0.9571 0.420061 0
0.953334 0.419887 0
0.948103 0.409955 0
0.421777 0.467144 0
0.428239 0.461564 0
0.434886 0.463715 0
0.43683 0.470246 0
0.429854 0.478823 0
0.422809 0.474596 0
0.421777 0.467144 0
0.0113364 0.0566914 0
0.0104398 0.0468929 0
0.0109945 0.0462788 0
0.0211605 0.0432145 0
0.0229539 0.0537337 0
0.0147729 0.0586218 0
0.0113364 0.0566914 0
0.9571 0.420061 0
0.963176 0.413676 0
0.967776 0.413541 0
0.97194 0.423411 0
0.969454 0.426815 0
0.962513 0.427965 0
0.9571 0.420061 0
0.401678 0.97757 0
0.406009 0.97721 0
0.415325 0.987143 0
0.407398 0.993628 0
0.398456 0.986102 0
0.401678 0.97757 0
0 0.0462943 0
0.0104398 0.0468929 0
0.0113364 0.0566914 0
0 0.0613094 0
0 0.0462943 0
0.408442 0.49972 0
0.402973 0.493194 0
0.403327 0.489673 0
0.413693 0.484257 0
0.419472 0.49024 0
0.41698 0.498729 0
0.408442 0.49972 0
0.945695 0.426125 0
0.946174 0.426055 0
0.955454 0.434793 0
0.952103 0.443538 0
0.948578 0.443042 0
0.940052 0.431591 0
0.945695 0.426125 0
0.420043 0.958289 0
0.424123 0.963349 0
0.424477 0.973691 0
0.423719 0.973942 0
0.412116 0.969774 0
0.410844 0.963925 0
0.414917 0.958387 0
0.420043 0.958289 0
0.0147729 0.0586218 0
0.0229539 0.0537337 0
0.0288726 0.0559492 0
0.0272506 0.0666679 0
0.0221579 0.0679909 0
0.0160114 0.0629323 0
0.0147729 0.0586218 0
0.426526 0.48833 0
0.430302 0.480462 0
0.441788 0.485328 0
0.44345 0.492159 0
0.433609 0.497331 0
0.426526 0.48833 0
0.412116 0.969774 0
0.423719 0.973942 0
0.415441 0.987138 0
0.415325 0.987143 0
0.406009 0.97721 0
0.412116 0.969774 0
0.0393326 0.0372507 0
0.0462501 0.0389371 0
0.0462869 0.0491028 0
0.0345627 0.0501577 0
0.032156 0.0444065 0
0.0393326 0.0372507 0
0.929912 0.420351 0
0.933189 0.416826 0
0.938204 0.415887 0
0.945695 0.426125 0
0.940052 0.431591 0
0.938168 0.431903 0
0.929621 0.421979 0
0.929912 0.420351 0
0.436678 0.971953 0
0.444264 0.977424 0
0.442916 0.985362 0
0.435495 0.986835 0
0.43168 0.984775 0
0.428345 0.975247 0
0.436678 0.971953 0
0.419472 0.49024 0
0.426526 0.48833 0
0.433609 0.497331 0
0.432482 0.501203 0
0.421133 0.503691 0
0.41698 0.498729 0
0.419472 0.49024 0
0.424123 0.963349 0
0.437324 0.96076 0
0.438532 0.96165 0
0.436678 0.971953 0
0.428345 0.975247 0
0.424477 0.973691 0
0.424123 0.963349 0
0.953334 0.419887 0
0.9571 0.420061 0
0.962513 0.427965 0
0.960122 0.432374 0
0.955454 0.434793 0
0.946174 0.426055 0
0.953334 0.419887 0
0.424477 0.973691 0
0.428345 0.975247 0
0.43168 0.984775 0
0.421145 0.991035 0
0.415441 0.987138 0
0.423719 0.973942 0
0.424477 0.973691 0
0.056202 0.050345 0
0.0564762 0.0372709 0
0.0607462 0.035607 0
0.065954 0.0387376 0
0.0667852 0.0501484 0
0.0573935 0.0511398 0
0.056202 0.050345 0
0.445476 0.43469 0
0.450413 0.437538 0
0.451395 0.445186 0
0.440486 0.45066 0
0.436667 0.447795 0
0.435801 0.439362 0
0.445476 0.43469 0
0.415441 0.987138 0
0.421145 0.991035 0
0.42388 1 0
0.40677 1 0
0.407398 0.993628 0
0.415325 0.987143 0
0.415441 0.987138 0
0.971731 0.409749 0
0.977425 0.409796 0
0.982291 0.415893 0
0.979551 0.422492 0
0.97194 0.423411 0
0.967776 0.413541 0
0.971731 0.409749 0
0.441702 0.457188 0
0.440486 0.45066 0
0.451395 0.445186 0
0.456556 0.44916 0
0.456075 0.456851 0
0.449304 0.460712 0
0.441702 0.457188 0
0.435495 0.986835 0
0.43368 1 0
0.42388 1 0
0.421145 0.991035 0
0.43168 0.984775 0
0.435495 0.986835 0
0.0462501 0.0389371 0
[...]
CELL_DATA 6400
FIELD FieldData 3
weight 1 6400 float
 0.0520246 0.0520882 0.0521658 0.0521958 0.0521063 0.0521706 0.0522506 0.0522766 0.0522529 0.0523122 0.0523671 0.0527815 0.0546977 0.0524308 0.0523874 0.0528573 0.0547427 0.0523874 0.0546106 0.0526426 0.0523051 0.0546596 0.0509569 0.0526616 0.0545715 0.0524773 0.0527502 0.0524572 0.0508636 0.054554 0.0527865 0.0522338 0.051011 0.0521925 0.052875 0.054593 0.050868 0.0526677 0.0523397 0.0546828 0.0507078 0.0529865 0.054643 0.0523456 0.0507543 0.0530802 0.0546592 0.0522824 0.0507208 0.0529252 0.0547058 0.0522932 0.0528414 0.0508337 0.0522196 0.0546232 0.0529435 0.0510581 0.0523599 0.0546673 0.0509437 0.052414 0.0530319 0.0509223 0.0546336 0.0510836 0.0529086 0.0508752 0.0525424 0.0547836 0.0507078 0.0527661 0.0547684 0.0507734 0.0524797 0.0526129 0.0547993 0.0526608 0.052458 0.0513527 0.0547364 0.0527033 0.0547766 0.0524393 0.0527371 0.0513482 0.0547491 0.0525317 0.05281 0.0547954 0.0513329 0.0526341 0.0526069 0.054811 0.0525841 0.0512177 0.0524969 0.0548012 0.0533994 0.0525341 0.0511867 0.0525832 0.0548194 0.053357 0.0512235 0.0525995 0.0547585 0.0532602 0.052624 0.0547769 0.0534116 0.0525584 0.0547784 0.0526854 0.0532972 0.0547028 0.0526841 0.0532324 0.052672 0.0546913 0.0527627 0.0530532 0.0547051 0.0527617 0.0531382 0.0547211 0.0528395 0.0532098 0.0528468 0.0531567 0.0546347 0.0527943 0.0530384 0.0546681 0.0528842 0.0530698 0.0546813 0.0529081 0.0547357 0.0533598 0.0526246 0.0547515 0.0533201 0.0527284 0.0547103 0.0532179 0.0527679 0.0532234 0.0526912 0.0547061 0.0527102 0.0547337 0.0527731 0.0532792 0.0528516 0.0542055 0.0532781 0.0528588 0.0541804 0.0531083 0.0529348 0.0541799 0.0531503 0.0541871 0.0528322 0.0529879 0.0542633 0.0529729 0.0531315 0.052932 0.054249 0.0530317 0.0542292 0.0530377 0.0530681 0.0541854 0.0530173 0.0541636 0.0529661 0.0523474 0.0541576 0.0523013 0.0529909 0.0541328 0.0524414 0.0542567 0.0528453 0.0525039 0.0542263 0.0529581 0.0523931 0.0542247 0.052358 0.0529277 0.0541943 0.0524508 0.052849 0.0524974 0.0543027 0.0525184 0.052777 0.0543393 0.052572 0.05284 0.0543329 0.0527383 0.0525703 0.0543022 0.0526922 0.0525601 0.054344 0.052562 0.0526375 0.054372 0.0526453 0.0526445 0.0526391 0.0527376 0.0543891 0.0525485 0.0523996 0.0543714 0.0525199 0.0523817 0.0542772 0.0529627 0.0543096 0.0525231 0.0528641 0.0524323 0.0542754 0.0527779 0.0543583 0.0524919 0.052463 0.0528842 0.0543648 0.0525371 0.0543287 0.0528672 0.0541194 0.0526464 0.0541151 0.0527072 0.052603 0.0541439 0.0540945 0.0527315 0.0527929 0.0541191 0.0526158 0.0526267 0.0542316 0.052734 0.0527462 0.0541784 0.0524643 0.054178 0.052549 0.0526285 0.0540702 0.0540365 0.052529 0.0540611 0.0525347 0.0540819 0.0524323 0.0541398 0.0541586 0.0524916 0.0523837 0.054123 0.0524484 0.0542772 0.0525351 0.054257 0.0542268 0.0526236 0.0524448 0.0543187 0.0523424 0.0543404 0.0525889 0.0542966 0.0525212 0.0514426 0.0526067 0.0543103 0.0513885 0.052745 0.0542377 0.052678 0.0541867 0.0514788 0.0542085 0.0528665 0.051211 0.0541563 0.0526731 0.0542733 0.0511401 0.0527931 0.0527274 0.0542647 0.0512681 0.0523921 0.0542202 0.0510582 0.0522853 0.0524974 0.0510798 0.0544102 0.0523693 0.0507487 0.0522365 0.0544417 0.0524852 0.0508893 0.0524039 0.0544159 0.0507297 0.0525609 0.0544953 0.0508918 0.0526129 0.0510121 0.0526725 0.0544733 0.0527082 0.0510402 0.0544688 0.0524813 0.0543916 0.0509974 0.052595 0.0544302 0.0507997 0.0526753 0.0543984 0.0507887 0.054472 0.052946 0.0509089 0.0544396 0.0530561 0.0508142 0.0544058 0.052866 0.0544511 0.0528671 0.0546684 0.0529584 0.0545618 0.0530123 0.0545684 0.054681 0.053111 0.0545152 0.0546473 0.0545426 0.0532868 0.0546043 0.0545898 0.0532002 0.0546426 0.0530473 0.0546085 0.0546065 0.0531408 0.0545956 0.0532085 0.0546295 0.0545351 0.0531532 0.0546574 0.0544922 0.0527967 0.0528263 0.0545716 0.054613 0.0529009 0.0546157 0.0545575 0.0529707 0.0545641 0.052748 0.0545314 0.0528095 0.0545593 0.0543697 0.0528608 0.0545878 0.0543598 0.0530566 0.054538 0.0543474 0.0531344 0.0545214 0.0544134 0.0530587 0.0543894 0.0544843 0.0529848 0.0545624 0.0543002 0.0529472 0.0545557 0.0530315 0.054301 0.0545189 0.0522907 0.0545185 0.0521899 0.0542632 0.0523635 0.0545009 0.0543707 0.0522462 0.0521139 0.0543392 0.0544623 0.0523112 0.0544783 0.0523293 0.0543393 0.0525274 0.0543262 0.0545858 0.0525999 0.054492 0.0524066 0.0546106 0.0544506 0.0524642 0.0545567 0.0524833 0.0544126 0.0545632 0.0544694 0.0525925 0.0520518 0.0545228 0.054512 0.0521801 0.0522297 0.0545297 0.0521175 0.0545393 0.0544912 0.0519699 0.0521056 0.0544264 0.0545029 0.0521778 0.0543857 0.0545118 0.0522843 0.05446 0.0523693 0.0544519 0.052451 0.0544297 0.0545008 0.0522874 0.0540032 0.0545235 0.0522743 0.0540185 0.0544885 0.0539815 0.0524108 0.0544693 0.053985 0.0523851 0.0544282 0.0540686 0.0526921 0.0544527 0.0527463 0.05404 0.0544059 0.0527909 0.0544724 0.054434 0.0526702 0.0544136 0.0525601 0.0543992 0.0539273 0.0543648 0.0539209 0.0538984 0.0543413 0.0538595 0.0538562 0.0539894 0.0528695 0.0544887 0.0539625 0.052912 0.0544652 0.0539526 0.053 0.054422 0.0527526 0.0540999 0.054354 0.0540967 0.0529608 0.0528431 0.0544016 0.0540501 0.0528946 0.0526861 0.0543595 0.052716 0.0544397 0.052657 0.0544068 0.0527495 0.0543942 0.052829 0.0543609 0.0528074 0.0543352 0.0529007 0.054296 0.0528172 0.0541129 0.0543022 0.0529194 0.0525651 0.0530158 0.0542076 0.0529031 0.0542383 0.0542305 0.05252 0.0529891 0.0541645 0.0526562 0.0541764 0.0530709 0.0542958 0.052676 0.0543046 0.0530362 0.0541595 0.0542539 0.0524045 0.0528161 0.0541367 0.0542326 0.0540643 0.05417 0.052585 0.0528658 0.0540174 0.0525151 0.0529085 0.0541559 0.0540006 0.0527871 0.0529497 0.0542219 0.0541313 0.0527077 0.0543525 0.0540655 0.0528509 0.0529064 0.0543613 0.0538147 0.052945 0.0537053 0.0543503 0.0526959 0.0537954 0.0529835 0.0543038 0.0537696 0.0528221 0.0542726 0.0538372 0.0530889 0.0542933 0.0538767 0.0533349 0.0531257 0.0537537 0.0543416 0.0534341 0.0538074 0.0530379 0.0542787 0.053462 0.0536788 0.0542337 0.0530038 0.0536581 0.0542245 0.0532439 0.0531001 0.0542819 0.0536167 0.0534225 0.0542456 0.0536071 0.0531734 0.0541935 0.0533439 0.0529387 0.0537329 0.0541978 0.052933 0.0536691 0.0541659 0.053009 0.0535413 0.0538912 0.0541354 0.0530111 0.0535545 0.0539663 0.0541573 0.0530145 0.0539329 0.0541602 0.0530893 0.0536431 0.0538396 0.0540975 0.0530914 0.0540121 0.0531541 0.0537041 0.0531733 0.0540817 0.0539606 0.0535287 0.0530816 0.0538807 0.0532207 0.0540514 0.0536137 0.0539203 0.0532399 0.0531784 0.0544716 0.0536277 0.0537818 0.0532405 0.0544201 0.0532287 0.0536602 0.0532932 0.0544095 0.0533569 0.0537292 0.0529912 0.0533134 0.0537104 0.0544321 0.0530632 0.0532322 0.0539031 0.054357 0.0530763 0.0537938 0.0543674 0.0531267 0.0531535 0.0538237 0.0532757 0.0531573 0.0544119 0.0537542 0.0534418 0.0543447 0.0531459 0.053548 0.0531684 0.0542142 0.0543417 0.0535102 0.0532147 0.0541766 0.0543377 0.0534325 0.0532787 0.0542807 0.0542755 0.0533485 0.05334 0.0542794 0.0542791 0.0534441 0.0532872 0.054236 0.0543881 0.053533 0.0532277 0.0542271 0.0543115 0.0541423 0.0533476 0.0537179 0.0542901 0.0541865 0.0533612 0.053769 0.0542843 0.0541134 0.0532858 0.0542426 0.0533651 0.0540816 0.0538418 0.0542597 0.0534295 0.0542147 0.0533548 0.0542804 0.0536865 0.0541701 0.0533632 0.0542094 0.0541461 0.0537696 0.0533039 0.0542292 0.0543379 0.0534286 0.0541556 0.0539195 0.0543316 0.0534198 0.0542669 0.054289 0.0534871 0.0540111 0.0534874 0.0543815 0.0535421 0.0542913 0.0538601 0.0543864 0.0534935 0.0541929 0.0543175 0.0539779 0.0542011 0.0542611 0.0536261 0.0542075 0.0542618 0.0535568 0.0539482 0.0541427 0.0535709 0.0536695 0.0541746 0.0540879 0.0533948 0.0542111 0.0536105 0.0534486 0.0543123 0.0537581 0.0541438 0.0535355 0.0542164 0.0535838 0.0534071 0.0540231 0.0542604 0.0535882 0.0534773 0.0541206 0.0540356 0.0536832 0.0535401 0.0540482 0.0540892 0.0538449 0.0534717 0.0540312 0.0539823 0.0535698 0.0539113 0.0539694 0.0541472 0.0535109 0.0539747 0.0536908 0.0542051 0.0537752 0.0541074 0.053637 0.0540684 0.0540502 0.0541287 0.0538484 0.0536053 0.0540172 0.054087 0.0536133 0.0537778 0.0539126 0.0540772 0.0531588 0.0536703 0.0538576 0.0540132 0.0530512 0.0539587 0.0540655 0.0536883 0.0532486 0.0539832 0.0539186 0.053108 0.0539836 0.0531681 0.0538988 0.0531084 0.0539181 0.0530276 0.0538581 0.0532267 0.0539164 0.0531703 0.0541454 0.0531749 0.0542224 0.0533563 0.0540691 0.0531517 0.053389 0.0541908 0.0540942 0.0531902 0.0534712 0.0541591 0.0541885 0.0532828 0.0541272 0.0532684 0.0541212 0.0532577 0.0541533 0.0532825 0.0540098 0.0533024 0.0541687 0.0533801 0.05395 0.0533002 0.0540754 0.0529606 0.0540587 0.0533999 0.0541116 0.0530032 0.0539972 0.0533504 0.0540031 0.0530891 0.0533867 0.053141 0.0540758 0.054648 0.0534842 0.0541057 0.0529317 0.0546331 0.053227 0.0540496 0.0546356 0.0528421 0.0540224 0.0546613 0.0532016 0.0530543 0.054691 0.0533251 0.0539649 0.0531757 0.0546566 0.0540546 0.0532845 0.0546873 0.053248 0.0539375 0.053095 0.0546161 0.0540067 0.0532753 0.054636 0.0539908 0.0531395 0.053336 0.0546135 0.0538993 0.0532388 0.0533958 0.0545927 0.0538786 0.0533734 0.0534845 0.0546668 0.0539366 0.0535575 0.0534459 0.0546589 0.0540231 0.0534554 0.0534546 0.0540193 0.0533459 0.0547403 0.0535432 0.0539392 0.0535295 0.054711 0.0534718 0.0539577 0.0547321 0.0536482 0.0538517 0.0535656 0.0547522 0.0536279 0.0539461 0.0535301 0.0539478 0.0547706 0.0537734 0.0534944 0.0547571 0.0538472 0.0537359 0.0534238 0.0547087 0.0535753 0.0538421 0.0546957 0.0535345 0.0537983 0.0547213 0.0536801 0.0536349 0.0538662 0.0546738 0.0535797 0.0533957 0.0537803 0.0547295 0.0535924 0.0534933 0.0538924 0.0536957 0.054751 0.0538662 0.0532941 0.0537155 0.0537949 0.0545885 0.0532828 0.0537002 0.0538322 0.0545699 0.0533952 0.0536301 0.0545644 0.0537366 0.0533654 0.0537853 0.0546358 0.0536658 0.0534694 0.0546118 0.0537751 0.0537714 0.0545441 0.0536176 0.053776 0.0537816 0.0545185 0.0534166 0.0537108 0.0538461 0.0544802 0.0536391 0.053528 0.0536488 0.0545829 0.0536709 0.0536872 0.0545264 0.0535753 0.0537329 0.0545701 0.0536268 0.0520058 0.0536122 0.0545261 0.0519137 0.05465 0.0540807 0.0519525 0.053646 0.0546542 0.0520809 0.0537799 0.0541391 0.0546232 0.053695 0.054684 0.0540851 0.0521344 0.0538164 0.0547144 0.0518745 0.0546857 0.0518381 0.0546004 0.0520122 0.0545699 0.0546061 0.0520924 0.054642 0.0522775 0.0546633 0.0522635 0.0546285 0.0521744 0.0547832 0.0520566 0.0547945 0.053831 0.0521721 0.0548177 0.0540068 0.0516927 0.0548458 0.0517647 0.0537532 0.054841 0.0517894 0.0540125 0.0518798 0.0548198 0.0540877 0.0519263 0.0539034 0.0548295 0.0540961 0.0517175 0.0547733 0.0516237 0.0540209 0.0538497 0.0548028 0.0518081 0.0539471 0.0547786 0.052008 0.0539555 0.0548108 0.0540194 0.0521597 0.0547839 0.0539478 0.0538911 0.0548169 0.0520111 0.0539234 0.0539038 0.0520771 0.0538761 0.0518948 0.0548583 0.0539459 0.0525506 0.05187 0.0524552 0.0538529 0.0520165 0.0548624 0.052589 0.0537707 0.0548517 0.0526205 0.0523554 0.054868 0.0537898 0.0525036 0.0524556 0.0538896 0.0525888 0.0538864 0.0524717 0.0548869 0.0526675 0.0538148 0.0522724 0.0548743 0.0526741 0.0537888 0.0523597 0.0548862 0.0528437 0.0540891 0.0524524 0.0548361 0.0527627 0.0548386 0.0540987 0.0526108 0.0540108 0.0548724 0.0528092 0.0527011 0.0548555 0.0540429 0.0527621 0.0527619 0.0548403 0.0527259 0.0540172 0.0525188 0.0548532 0.0528104 0.0539941 0.0539143 0.0547138 0.0525786 0.0528891 0.0526207 0.054001 0.0547458 0.0526301 0.0525248 0.0547476 0.0539483 0.0525771 0.0526463 0.054701 0.0527138 0.0522546 0.0539201 0.054786 0.0526673 0.0547393 0.0522835 0.0539229 0.05255 0.0547715 0.0523465 0.0525686 0.0546955 0.0523784 0.0538664 0.0521866 0.0527289 0.0539081 0.0546635 0.0521659 0.0538313 0.0527329 0.054664 0.0522039 0.0538109 0.052649 0.0547334 0.0524446 0.0547082 0.0527971 0.0537358 0.0548144 0.0525087 0.0528807 0.053758 0.054815 0.0523378 0.0528551 0.0538022 0.0547793 0.0523953 0.0527942 0.054795 0.0537628 0.0524236 0.052878 0.0538373 0.0515449 0.0548475 0.0537182 0.0529462 0.051587 0.0548145 0.053743 0.0529815 0.0516662 0.0547704 0.0537495 0.0547452 0.0529022 0.0517125 0.0536637 0.0530652 0.0514971 0.0547182 0.0536963 0.0514694 0.0530227 0.0515303 0.0546897 0.0535871 0.0529883 0.0516286 0.0547574 0.0535966 0.0529335 0.0536311 0.0518547 0.0530504 0.0547854 0.0537225 0.0519205 0.0536427 0.0530894 0.0517182 0.054743 0.0536942 0.0516267 0.0531885 0.0544406 0.053541 0.0517589 0.0531883 0.0535126 0.054483 0.0517684 0.0535772 0.0532592 0.0544242 0.0518567 0.0534983 0.0531309 0.0513554 0.0543687 0.0531956 0.0514057 0.0544687 0.0534135 0.0531461 0.054413 0.0514716 0.0535184 0.0532451 0.0544541 0.0512158 0.052951 0.0543583 0.0533039 0.0512744 0.0530193 0.054302 0.053386 0.051292 0.0530629 0.0544007 0.0530788 0.0532872 0.0514361 0.0543468 0.0531301 0.0534183 0.0516106 0.054508 0.0532137 0.0534387 0.051594 0.0545555 0.0531547 0.0533922 0.0545012 0.0516693 0.0532459 0.0545683 0.053298 0.0514867 0.0533097 0.0545894 0.0515223 0.0532812 0.0532021 0.0545242 0.0536436 0.0545383 0.0532773 0.0515835 0.0544438 0.0536755 0.05443 0.0533406 0.0520452 0.0536374 0.0543854 0.0525996 0.0535035 0.0520373 0.0543741 0.0526778 0.0535506 0.0521621 0.0544853 0.0527606 0.0534427 0.0544727 0.0519576 0.0526712 0.0536446 0.0525887 0.0521022 0.0544186 0.0536087 0.0526758 0.0521977 0.054237 0.0535565 0.0542188 0.052764 0.0522681 0.0534331 0.0541607 0.0528195 0.0523289 0.0534632 0.0541737 0.052954 0.052283 0.0542601 0.0535322 0.0529029 0.0520794 0.0542815 0.0534511 0.0528438 0.0521577 0.0541867 0.0533666 0.0529208 0.0522237 0.0541089 0.0533435 0.0529861 0.0534024 0.0540962 0.0517974 0.052604 0.0532746 0.0526919 0.0519296 0.0539854 0.052769 0.0532039 0.0519087 0.054049 0.0527566 0.0532575 0.0517445 0.05412 0.0526295 0.0533389 0.0517782 0.0527128 0.0533129 0.0540621 0.0518406 0.0533327 0.0527887 0.0540293 0.0519861 0.0528523 0.0543279 0.053191 0.0520736 0.0543087 0.0528526 0.0542385 0.0532212 0.0521173 0.0529234 0.0543459 0.0539263 0.052059 0.0529831 0.0543233 0.0519481 0.0528793 0.0542708 0.0539872 0.0542059 0.0538415 0.0530076 0.0518336 0.0541707 0.0538713 0.0519916 0.0529732 0.0541108 0.0528867 0.0538125 0.0542583 0.0530323 0.0537472 0.0531048 0.0541614 0.0527916 0.0531418 0.0538429 0.0537997 0.0530361 0.054623 0.0529848 0.0546046 0.0531042 0.0545643 0.0537428 0.0529355 0.0531671 0.0546459 0.053216 0.0528213 0.0537713 0.0545915 0.0528562 0.0532819 0.0537103 0.054514 0.0530363 0.053369 0.0544617 0.0536742 0.0530697 0.0545364 0.0533553 0.0537749 0.0544864 0.0531751 0.0532912 0.0536748 0.054489 0.0529615 0.0532435 0.0546763 0.0530067 0.0536401 0.0533429 0.054644 0.0527466 0.0536547 0.0546326 0.0534203 0.0535753 0.0526324 0.0536433 0.0531355 0.0547021 0.0527022 0.0535921 0.0530493 0.0527796 0.0535927 0.0546649 0.0532262 0.0525693 0.0545921 0.0534823 0.0531895 0.0545179 0.0526735 0.053508 0.0530777 0.0545376 0.0526848 0.0536723 0.0545746 0.0531132 0.0528638 0.0536419 0.0546148 0.0528599 0.0532747 0.053625 0.0545591 0.0529481 0.0531739 0.0535683 0.054409 0.0535423 0.0527686 0.0533073 0.052765 0.0543678 0.0535801 0.0533532 0.0543162 0.0531554 0.0535968 0.0534035 0.0544264 0.0532377 0.0544274 0.053499 0.0532968 0.0543782 0.053345 0.0531025 0.054263 0.0535123 0.0534267 0.0531849 0.0534761 0.0541424 0.0533599 0.0534956 0.0533893 0.0542155 0.05356 0.0534718 0.0533212 0.0542787 0.05351 0.0533976 0.0532544 0.0543317 0.0534767 0.0534211 0.0534449 0.0542084 0.0534174 0.0541974 0.0533284 0.053303 0.053302 0.0544689 0.0534764 0.0533964 0.0544325 0.0533663 0.0535022 0.0534335 0.0543658 0.0530567 0.0543767 0.0529814 0.053418 0.053308 0.0531259 0.0535026 0.0533351 0.0528639 0.0545128 0.0533723 0.0535587 0.0530577 0.0545081 0.0532787 0.0535977 0.0529501 0.0544625 0.0536003 0.0532349 0.0531266 0.0544001 0.0536977 0.0531932 0.0535227 0.0543165 0.0536486 0.053237 0.0542928 0.0535449 0.0533708 0.0530067 0.0534203 0.0542472 0.0535316 0.0534223 0.0543391 0.053186 0.0534478 0.0534523 0.0533938 0.0530672 0.0533278 0.0542473 0.0534706 0.053362 0.052508 0.0535541 0.0534591 0.0542852 0.052363 0.0536014 0.0533817 0.0535489 0.0525239 0.0536821 0.0533044 0.0534953 0.0525669 0.0534066 0.053747 0.0532754 0.0523121 0.0534871 0.0532421 0.0536202 0.0524192 0.0535608 0.0536773 0.0532957 0.0535559 0.0523538 0.053735 0.0532136 0.0524542 0.0536104 0.053684 0.0526622 0.0532139 0.0535048 0.0537636 0.0526712 0.0534199 0.0531038 0.0537272 0.0533377 0.0527237 0.0531564 0.0538143 0.0532705 0.0531872 0.0525615 0.0537378 0.0532877 0.0531192 0.0526008 0.0538079 0.0533556 0.0531757 0.0526434 0.0538383 0.0534839 0.0530661 0.0538828 0.0521889 0.0534132 0.0530089 0.0533573 0.0522863 0.0538892 0.0532736 0.0536063 0.0520763 0.0539476 0.0535473 0.0533605 0.0521618 0.0539191 0.0536946 0.0533272 0.0532362 0.0536647 0.0521561 0.0539964 0.0532058 0.0523862 0.0538363 0.0535943 0.0531469 0.0537643 0.0524796 0.053625 0.0532004 0.0539005 0.0525337 0.0535154 0.0531111 0.0538129 0.052296 0.0534529 0.0538765 0.0531684 0.0534211 0.0523277 0.0539369 0.0531286 0.0533734 0.0524304 0.053978 0.0530348 0.0535555 0.0528291 0.0539501 0.0535412 0.0530332 0.0528887 0.0534625 0.0531081 0.0540396 0.0527548 0.0533879 0.0530729 0.0539932 0.0532298 0.0526756 0.0530385 0.0532152 0.0540248 0.0527834 0.0531468 0.0531636 0.0529554 0.0529715 0.0540788 0.0530908 0.0529132 0.0534489 0.0529049 0.0532905 0.0531138 0.053166 0.052989 0.0534205 0.0532269 0.0528246 0.0530419 0.0535037 0.0530273 0.052888 0.05359 0.0528926 0.0529006 0.0529629 0.0530335 0.053499 0.0529488 0.0530993 0.0535485 0.0525837 0.0531056 0.0529277 0.0536085 0.0526888 0.0530173 0.0527846 0.0536414 0.0525699 0.0529341 0.0536652 0.0530256 0.0527848 0.0524547 0.0533215 0.0537972 0.0524322 0.0533125 0.053752 0.0539577 0.0532489 0.0537032 0.0525073 0.0538907 0.0538139 0.0534046 0.0527621 0.0537772 0.0539406 0.0532546 0.0526497 0.0535603 0.0533386 0.0538448 0.0528265 0.0531871 0.0534825 0.0537768 0.0531124 0.0526988 0.0536267 0.0531195 0.0535562 0.052557 0.0538605 0.053039 0.0536234 0.0531858 0.0537394 0.0526198 0.0532388 0.0538065 0.0536866 0.0527252 0.0531648 0.0537283 0.0536836 0.0530744 0.0537508 0.0536809 0.0540393 0.0537897 0.0538179 0.0538613 0.0541474 0.0537061 0.0537907 0.053904 0.0537631 0.0541372 0.0537631 0.0537081 0.0538197 0.0538136 0.0538358 0.0540688 0.0538696 0.0537297 0.0537876 0.0540735 0.0538945 0.0537527 0.0537415 0.0539364 0.0542182 0.0536613 0.0536351 0.0538513 0.0536371 0.054275 0.0536885 0.0539274 0.0535512 0.053648 0.0541413 0.0539609 0.0534881 0.0535927 0.0542194 0.0540384 0.0536778 0.053545 0.0542093 0.0535914 0.0539923 0.0535155 0.0541076 0.0539266 0.0536801 0.0535991 0.0539955 0.0536561 0.0541368 0.0540001 0.0538897 0.0535746 0.05406 0.0538268 0.0538425 0.053618 0.0540397 0.053881 0.0539276 0.0535204 0.0541 0.054008 0.0539359 0.0535393 0.0541676 0.0540706 0.0541414 0.0539469 0.0538227 0.0534779 0.0540819 0.0537536 0.0538785 0.0541532 0.0534612 0.0537545 0.0540331 0.0539971 0.0533604 0.0540001 0.0536133 0.0540763 0.053962 0.0536768 0.0534381 0.0543542 0.0538134 0.0533485 0.0539012 0.0536934 0.0544183 0.053236 0.0540427 0.0543823 0.0534097 0.0535066 0.0540778 0.0533255 0.0542914 0.0535966 0.0533633 0.0542088 0.0542581 0.0534366 0.053441 0.053445 0.0543126 0.0541464 0.0534421 0.0534516 0.0544312 0.0533491 0.054103 0.0535467 0.0532845 0.0533675 0.0545005 0.0541758 0.0532177 0.0543759 0.053309 0.0531243 0.0543758 0.0533309 0.0542352 0.053111 0.0532324 0.0544249 0.0536594 0.0532632 0.0532449 0.0544441 0.0535868 0.0531805 0.0542053 0.0531198 0.0536231 0.0531756 0.0542662 0.0536646 0.0531988 0.0535244 0.0542537 0.0537256 0.0537585 0.0535279 0.0536744 0.0541397 0.0537587 0.0537826 0.053418 0.0541208 0.0537145 0.0536987 0.0541891 0.0536011 0.0537716 0.05363 0.054308 0.0537208 0.0535634 0.0543109 0.0538268 0.0537067 0.0534873 0.0538629 0.0543516 0.0535632 0.0534003 0.0537806 0.0542541 0.0536674 0.0538028 0.053336 0.053606 0.0542735 0.0538769 0.0532515 0.0535061 0.0538611 0.0537128 0.0534919 0.0532146 0.0539456 0.053766 0.053537 0.053909 0.0533599 0.0538372 0.0534029 0.0533053 0.053818 0.0538256 0.0534318 0.0536197 0.0537428 0.0532624 0.053752