# vtk DataFile Version 3.0
vtk output
ASCII
DATASET UNSTRUCTURED_GRID
POINTS 34074 float
0 0 0
1 0 0
1 1 0
0 1 0
0 0 0
0 0 0
1 0 0
1 1 0
0 1 0
0 0 0
0 0 0
1 0 0
1 1 0
0 1 0
0 0 0
0.389501 0 0
1 0 0
1 0.801148 0
0.690279 0.407749 0
0.389501 0 0
0 0 0
1 0 0
1 1 0
0 1 0
0 0 0
0 0 0
1 0 0
1 1 0
0 1 0
0 0 0
0 0 0
1 0 0
1 1 0
0 1 0
0 0 0
0 0 0
1 0 0
1 1 0
0 1 0
0 0 0
0.289311 0 0
1 0 0
1 0.818408 0
0.963704 0.777639 0
0.443203 0.180175 0
0.289311 0 0
0 0 0
1 0 0
1 1 0
0 1 0
0 0 0
0 0 0
1 0 0
1 1 0
0 1 0
0 0 0
0.343146 0 0
1 0 0
1 0.912467 0
0.722945 0.542447 0
0.343146 0 0
0 0 0
1 0 0
1 1 0
0 1 0
0 0 0
0 0 0
1 0 0
1 1 0
0 1 0
0 0 0
0 0 0
1 0 0
1 1 0
0 1 0
0 0 0
0 0 0
1 0 0
1 1 0
0 1 0
0 0 0
0.322252 0 0
1 0 0
1 0.787419 0
0.694187 0.440362 0
0.322252 0 0
0 0 0
1 0 0
1 1 0
0 1 0
0 0 0
0 0 0
1 0 0
1 1 0
0 1 0
0 0 0
0 0 0
1 0 0
1 1 0
0 1 0
0 0 0
0.310136 0 0
1 0 0
1 0.761663 0
0.701111 0.439406 0
0.310136 0 0
0 0 0
1 0 0
1 1 0
0 1 0
0 0 0
0 0 0
1 0 0
1 1 0
0 1 0
0 0 0
0 0 0
1 0 0
1 1 0
0 1 0
0 0 0
0 0 0
1 0 0
1 1 0
0 1 0
0 0 0
0 0 0
1 0 0
1 1 0
0 1 0
0 0 0
0.362657 0 0
1 0 0
1 0.658409 0
0.8194 0.478811 0
0.780177 0.438461 0
0.362657 0 0
0 0 0
1 0 0
1 1 0
0 1 0
0 0 0
0 0 0
1 0 0
1 1 0
0 1 0
0 0 0
0 0 0
1 0 0
1 1 0
0 1 0
0 0 0
0 0 0
1 0 0
1 1 0
0 1 0
0 0 0
0 0 0
1 0 0
1 1 0
0 1 0
0 0 0
0 0 0
1 0 0
1 1 0
0 1 0
0 0 0
0 0 0
1 0 0
1 1 0
0 1 0
0 0 0
0 0 0
1 0 0
1 1 0
0 1 0
0 0 0
0 0 0
1 0 0
1 1 0
0 1 0
0 0 0
0 0 0
1 0 0
1 0.525374 0
0.435671 0.25645 0
0 0.0328183 0
0 0 0
0 0 0
1 0 0
1 1 0
0 1 0
0 0 0
0.381573 0 0
1 0 0
1 0.672974 0
0.814531 0.478517 0
0.781923 0.443117 0
0.381573 0 0
0 0 0
1 0 0
1 1 0
0 1 0
0 0 0
0 0 0
1 0 0
1 1 0
0 1 0
0 0 0
0 0 0
1 0 0
1 1 0
0 1 0
0 0 0
0.405055 0 0
1 0 0
1 0.820221 0
0.690885 0.407788 0
0.405055 0 0
0 0 0
1 0 0
1 1 0
0 1 0
0 0 0
0 0 0
1 0 0
1 1 0
0 1 0
0 0 0
0 0 0
1 0 0
1 1 0
0 1 0
0 0 0
0 0 0
1 0 0
1 1 0
0 1 0
0 0 0
0 0 0
1 0 0
1 1 0
0 1 0
0 0 0
0 0 0
1 0 0
1 1 0
0 1 0
0 0 0
0 0 0
0.062315 0 0
0.410176 0.330656 0
1 0.91521 0
1 1 0
0 1 0
0 0 0
0 0 0
1 0 0
1 1 0
0 1 0
0 0 0
0 0 0
1 0 0
1 1 0
0 1 0
0 0 0
0 0 0
1 0 0
1 1 0
0 1 0
0 0 0
0 0 0
1 0 0
1 1 0
0 1 0
0 0 0
0.390248 0 0
1 0 0
1 0.694853 0
0.810394 0.486505 0
0.799778 0.474732 0
0.789313 0.462816 0
0.390248 0 0
0 0 0
1 0 0
1 1 0
0 1 0
0 0 0
0 0 0
0.0547148 0 0
0.379593 0.247878 0
0.665147 0.474079 0
1 0.74782 0
1 1 0
0 1 0
0 0 0
0 0 0
1 0 0
1 1 0
0 1 0
0 0 0
0 0 0
1 0 0
1 1 0
0 1 0
0 0 0
0 0 0
1 0 0
1 1 0
0 1 0
0 0 0
0 0.00103019 0
0.147648 0.127844 0
0.650214 0.570623 0
1 0.898766 0
1 1 0
0 1 0
0 0.00103019 0
0 0 0
1 0 0
1 1 0
0 1 0
0 0 0
0 0 0
1 0 0
1 1 0
0 1 0
0 0 0
0.225185 0 0
1 0 0
1 0.793014 0
0.792558 0.586402 0
0.225185 0 0
0 0 0
1 0 0
1 1 0
0 1 0
0 0 0
0 0 0
0.00842855 0 0
0 0.00967297 0
0 0 0
0 0 0
0.0417172 0 0
0.310279 0.227164 0
0.652132 0.525713 0
1 0.840701 0
1 1 0
0 1 0
0 0 0
0.320293 0 0
1 0 0
1 0.906317 0
0.661402 0.473241 0
0.320293 0 0
0 0 0
1 0 0
1 1 0
0 1 0
0 0 0
0 0 0
0.00613566 0 0
0 0.00655755 0
0 0 0
0 0 0
1 0 0
1 1 0
0 1 0
0 0 0
0.320468 0 0
1 0 0
1 0.866923 0
0.894818 0.735999 0
0.436183 0.150424 0
0.320468 0 0
0 0 0
0.0306533 0 0
0.373614 0.25107 0
0.665463 0.472969 0
1 0.735681 0
1 1 0
0 1 0
0 0 0
0 0 0
0.0016506 0 0
0 0.00164385 0
0 0 0
0 0 0
1 0 0
1 1 0
0 1 0
0 0 0
0.179609 0 0
1 0 0
1 0.838004 0
0.780112 0.620954 0
0.360634 0.192892 0
0.19582 0.0177722 0
0.179609 0 0
0 0 0
1 0 0
1 1 0
0 1 0
0 0 0
0 0 0
1 0 0
1 1 0
0 1 0
0 0 0
0 0 0
0.0274227 0 0
0.961628 0.735554 0
1 0.766949 0
1 1 0
0 1 0
0 0 0
0 0 0
1 0 0
1 1 0
0 1 0
0 0 0
0.233551 0 0
1 0 0
1 0.872305 0
0.707079 0.54724 0
0.296406 0.0748952 0
0.233551 0 0
0 0 0
1 0 0
1 1 0
0 1 0
0 0 0
0 0 0
1 0 0
1 1 0
0 1 0
0 0 0
0 0 0
0.0381428 0 0
0 0.0452986 0
0 0 0
0 0 0
1 0 0
1 1 0
0 1 0
0 0 0
0 0 0
1 0 0
1 1 0
0 1 0
0 0 0
0 0 0
0.0134095 0 0
0.244268 0.150848 0
0.687388 0.449502 0
0.718844 0.471488 0
1 0.67478 0
1 1 0
0 1 0
0 0 0
0.214176 0 0
1 0 0
1 0.779824 0
0.752797 0.542951 0
0.285383 0.0741953 0
0.214176 0 0
0 0 0
1 0 0
1 1 0
0 1 0
0 0 0
0 0 0
1 0 0
1 1 0
0 1 0
0 0 0
0 0 0
0.0152476 0 0
0 0.0152684 0
0 0 0
0 0 0
1 0 0
1 1 0
0 1 0
0 0 0
0 0 0
1 0 0
1 1 0
0 1 0
0 0 0
0 0 0
0.0222216 0 0
0.30642 0.228159 0
0.655652 0.517513 0
1 0.813456 0
1 1 0
0 1 0
0 0 0
0.368388 0 0
1 0 0
1 0.837057 0
0.644066 0.374188 0
0.368388 0 0
0 0 0
1 0 0
1 1 0
0 1 0
0 0 0
0 0 0
0.0211392 0 0
0 0.0224223 0
0 0 0
0 0 0
1 0 0
1 1 0
0 1 0
0 0 0
0 0.00587108 0
0.960517 0.730461 0
1 0.761451 0
1 1 0
0 1 0
0 0.00587108 0
0 0 0
1 0 0
1 1 0
0 1 0
0 0 0
0.684668 0.407388 0
0.41409 0 0
1 0 0
1 0.850417 0
0.684668 0.407388 0
0 0 0
1 0 0
1 1 0
0 1 0
0 0 0
0 0 0
0.0541048 0 0
0 0.0666955 0
0 0 0
0 0 0
0.00255766 0 0
0.370967 0.252483 0
0.66805 0.463897 0
1 0.708045 0
1 1 0
0 1 0
0 0 0
0 0 0
1 0 0
1 1 0
0 1 0
0 0 0
0.36842 0 0
1 0 0
1 0.707099 0
0.785898 0.475372 0
0.726411 0.408031 0
0.36842 0 0
0 0 0
1 0 0
1 1 0
0 1 0
0 0 0
0 0 0
1 0 0
1 1 0
0 1 0
0 0 0
0 0 0
0.0855648 0 0
0 0.141705 0
0 0 0
0 0 0
1 0 0
1 1 0
0 1 0
0 0 0
0 0 0
1 0 0
1 1 0
0 1 0
0 0 0
0.347199 0 0
1 0 0
1 0.912697 0
0.851137 0.709595 0
0.427861 0.11516 0
0.347199 0 0
0 0.068702 0
0.111699 0.153888 0
0.502921 0.45989 0
1 0.884682 0
1 1 0
0 1 0
0 0.068702 0
0 0 0
1 0 0
1 1 0
0 1 0
0 0 0
0 0 0
1 0 0
1 1 0
0 1 0
0 0 0
0 0 0
0.0685333 0 0
0.0177977 0.072148 0
0 0.0945146 0
0 0 0
0 0 0
1 0 0
1 1 0
0 1 0
0 0 0
0 0 0
0.0112684 0 0
0.406029 0.333295 0
1 0.85574 0
1 1 0
0 1 0
0 0 0
0.350373 0 0
1 0 0
1 0.829669 0
0.68862 0.441131 0
0.350373 0 0
0 0 0
1 0 0
1 1 0
0 1 0
0 0 0
0 0 0
0.0657682 0 0
0.0117436 0.0719415 0
0 0.0857675 0
0 0 0
0 0 0
1 0 0
1 1 0
0 1 0
0 0 0
0.367624 0 0
1 0 0
1 0.967866 0
0.71105 0.542629 0
0.367624 0 0
0 0 0
0.0560587 0 0
0.00199659 0.0716092 0
0 0.0739595 0
0 0 0
0 0 0
0.0256979 0 0
0.404785 0.334087 0
1 0.880674 0
1 1 0
0 1 0
0 0 0
0 0 0
1 0 0
1 1 0
0 1 0
0 0 0
0.369984 0 0
1 0 0
1 0.779592 0
0.801352 0.541682 0
0.369984 0 0
0 0 0
1 0 0
1 1 0
0 1 0
0 0 0
0 0.0816268 0
0.0993828 0.154274 0
0.504243 0.457682 0
1 0.863999 0
1 1 0
0 1 0
0 0.0816268 0
0.0243009 0 0
1 0 0
1 0.524758 0
0.370627 0.191754 0
0.0243009 0 0
0 0 0
1 0 0
1 1 0
0 1 0
0 0 0
0.37825 0 0
1 0 0
1 0.481798 0
0.968699 0.459269 0
0.726434 0.277395 0
0.37825 0 0
0 0 0
1 0 0
1 1 0
0 1 0
0 0 0
0 0 0
0.22178 0 0
0.360251 0.193542 0
0.789384 0.825863 0
0.904307 1 0
0 1 0
0 0 0
0 0 0
1 0 0
1 1 0
0 1 0
0 0 0
0 0 0
1 0 0
1 1 0
0 1 0
0 0 0
0 0 0
1 0 0
1 1 0
0 1 0
0 0 0
0 0.0967045 0
0.0828803 0.154792 0
0.504354 0.457496 0
1 0.847105 0
1 1 0
0 1 0
0 0.0967045 0
0 0 0
1 0 0
1 1 0
0 1 0
0 0 0
0.238538 0 0
1 0 0
1 0.496212 0
0.619134 0.253576 0
0.238538 0 0
0 0 0
1 0 0
1 1 0
0 1 0
0 0 0
0 0 0
1 0 0
1 1 0
0 1 0
0 0 0
0 0 0
1 0 0
1 1 0
0 1 0
0 0 0
0 0.097133 0
0.650199 0.513635 0
0.66227 0.521645 0
1 0.753666 0
1 1 0
0 1 0
0 0.097133 0
0.372863 0 0
1 0 0
1 0.636432 0
0.372863 0 0
0 0 0
1 0 0
1 1 0
0 1 0
0 0 0
0 0 0
1 0 0
1 1 0
0 1 0
0 0 0
0 0 0
1 0 0
1 1 0
0 1 0
0 0 0
0 0.0228782 0
0.954911 0.704762 0
1 0.738316 0
1 1 0
0 1 0
0 0.0228782 0
0 0 0
1 0 0
1 1 0
0 1 0
0 0 0
0.130587 0 0
1 0 0
1 0.519719 0
0.49566 0.229175 0
0.130587 0 0
0 0 0
1 0 0
1 1 0
0 1 0
0 0 0
0 0 0
1 0 0
1 1 0
0 1 0
0 0 0
0 0 0
1 0 0
1 1 0
0 1 0
0 0 0
0 0.0100308 0
0.402775 0.335367 0
1 0.837858 0
1 1 0
0 1 0
0 0.0100308 0
0.218153 0 0
1 0 0
1 0.516419 0
0.29576 0.0549482 0
0.218153 0 0
0 0 0
1 0 0
1 1 0
0 1 0
0 0 0
0 0 0
1 0 0
1 1 0
0 1 0
0 0 0
0.268309 0 0
1 0 0
1 0.504068 0
0.617792 0.246156 0
0.268309 0 0
0 0 0
1 0 0
1 1 0
0 1 0
0 0 0
0 0.0282464 0
0.280921 0.234734 0
0.655221 0.518518 0
1 0.78992 0
1 1 0
0 1 0
0 0.0282464 0
0 0 0
1 0 0
1 1 0
0 1 0
0 0 0
0 0 0
1 0 0
1 1 0
0 1 0
0 0 0
0.493988 0 0
1 0 0
1 0.495466 0
0.903925 0.407256 0
0.755907 0.264965 0
0.493988 0 0
0 0 0
1 0 0
1 1 0
0 1 0
0 0 0
0 0 0
1 0 0
1 1 0
0 1 0
0 0 0
0 0 0
1 0 0
1 1 0
0 1 0
0 0 0
0.390656 0 0
1 0 0
1 0.496525 0
0.953496 0.461256 0
0.724989 0.280429 0
0.390656 0 0
0 0 0
1 0 0
1 1 0
0 1 0
0 0 0
0 0 0
1 0 0
1 1 0
0 1 0
0 0 0
0 0 0
1 0 0
1 1 0
0 1 0
0 0 0
0 0 0
0.118456 0 0
0.282802 0.12659 0
0.386939 0.209339 0
1 0.712063 0
1 1 0
0 1 0
0 0 0
0.54875 0 0
1 0 0
1 0.511942 0
0.856459 0.35838 0
0.713612 0.196982 0
0.54875 0 0
0 0 0
1 0 0
1 1 0
0 1 0
0 0 0
0 0 0
1 0 0
1 1 0
0 1 0
0 0 0
0 0 0
1 0 0
1 1 0
0 1 0
0 0 0
0 0 0
1 0 0
1 1 0
0 1 0
0 0 0
0.544681 0 0
1 0 0
1 0.493531 0
0.865902 0.356517 0
0.715046 0.193998 0
0.544681 0 0
0 0 0
0.211249 0 0
0.563307 0.295568 0
1 0.675245 0
1 1 0
0 1 0
0 0 0
0 0 0
1 0 0
1 1 0
0 1 0
0 0 0
0 0 0
1 0 0
1 1 0
0 1 0
0 0 0
0 0 0
1 0 0
1 1 0
0 1 0
0 0 0
0 0 0
1 0 0
1 1 0
0 1 0
0 0 0
0 0.0157869 0
0.227025 0.155074 0
0.687917 0.446673 0
0.719505 0.467422 0
1 0.658217 0
1 1 0
0 1 0
0 0.0157869 0
0.331295 0 0
1 0 0
1 0.514553 0
0.836549 0.39458 0
0.331295 0 0
0 0 0
1 0 0
1 1 0
0 1 0
0 0 0
0 0 0
1 0 0
1 1 0
0 1 0
0 0 0
0 0 0
1 0 0
1 1 0
0 1 0
0 0 0
0 0 0
0.107668 0 0
0.315646 0.150222 0
0.363296 0.185589 0
1 0.671318 0
1 1 0
0 1 0
0 0 0
0 0 0
1 0 0
1 1 0
0 1 0
0 0 0
0.457299 0 0
1 0 0
1 0.510027 0
0.997402 0.507742 0
0.705704 0.239873 0
0.457299 0 0
0 0 0
1 0 0
1 1 0
0 1 0
0 0 0
0 0 0
1 0 0
1 1 0
0 1 0
0 0 0
0 0 0
1 0 0
1 1 0
0 1 0
0 0 0
0 0 0
1 0 0
1 1 0
0 1 0
0 0 0
0.476758 0 0
1 0 0
1 0.51793 0
0.988897 0.50763 0
0.707779 0.23521 0
0.476758 0 0
0 0 0
1 0 0
1 1 0
0 1 0
0 0 0
0 0 0
1 0 0
1 1 0
0 1 0
0 0 0
0 0 0
1 0 0
1 1 0
0 1 0
0 0 0
0 0 0
0.249127 0 0
0.537869 0.244394 0
0.845479 0.519054 0
1 0.660511 0
1 1 0
0 1 0
0 0 0
0 0 0
1 0 0
1 1 0
0 1 0
0 0 0
0 0 0
1 0 0
1 1 0
0 1 0
0 0 0
0 0 0
1 0 0
1 1 0
0 1 0
0 0 0
0 0 0
0.29519 0 0
0.423664 0.11493 0
0.820399 0.478967 0
1 0.648849 0
1 1 0
0 1 0
0 0 0
0.447663 0 0
1 0 0
1 0.73855 0
0.797661 0.476512 0
0.773191 0.444434 0
0.447663 0 0
0 0 0
1 0 0
1 1 0
0 1 0
0 0 0
0 0 0
1 0 0
1 1 0
0 1 0
0 0 0
0 0 0
1 0 0
1 1 0
0 1 0
0 0 0
0 0 0
1 0 0
1 1 0
0 1 0
0 0 0
0 0 0
1 0 0
1 1 0
0 1 0
0 0 0
0.428264 0.232399 0
0.0409381 0 0
1 0 0
1 0.553812 0
0.428264 0.232399 0
0 0 0
1 0 0
1 1 0
0 1 0
0 0 0
0 0 0
0.187241 0 0
0.285631 0.0670892 0
0.367779 0.124346 0
1 0.577666 0
1 1 0
0 1 0
0 0 0
0 0 0
0.00809573 0 0
0 0.00692692 0
0 0 0
0 0 0
1 0 0
1 1 0
0 1 0
0 0 0
[...]
CELL_DATA 6139
FIELD FieldData 3
weight 1 6139 float
 0.953043 0.953258 0.946841 0.896655 0.94674 0.95311 0.952909 0.959215 0.902914 0.953108 0.934233 0.903046 0.934468 0.928339 0.940493 0.940802 0.903353 0.940405 0.940789 0.934318 0.897111 0.934245 0.934562 0.940412 0.947092 0.947003 0.890817 0.946658 0.952903 0.946768 0.946685 0.959444 0.959369 0.952981 1.14681 0.952881 0.890406 1.15325 0.890746 1.15293 1.14697 0.953183 0.896838 0.959135 0.95961 0.959142 0.965789 0.959208 0.965741 1.14698 0.959576 0.959553 0.965813 0.971786 0.89702 0.972074 1.15302 0.96577 0.965565 0.95947 1.15314 0.965474 0.971849 0.909432 0.971993 0.728206 1.15304 0.909599 0.96563 0.728176 0.971878 0.90953 1.1469 0.72817 0.977962 0.91566 0.978247 0.978001 1.15931 0.97833 0.915613 0.98416 0.978158 0.728311 0.984285 0.97796 1.15942 0.915789 0.990844 0.984596 0.721905 0.98442 0.96538 1.16561 0.903081 0.965399 0.721915 0.972097 1.15305 0.971937 0.90311 0.971698 0.728155 1.16565 0.978236 0.902925 0.965721 0.971907 0.734383 0.971765 0.971752 0.915584 1.15943 0.977928 0.977954 0.734468 0.978223 1.17182 0.90913 0.98433 0.734559 0.978228 0.909572 0.728144 1.15915 0.984279 0.909595 0.990391 1.16587 0.890622 0.990842 0.878045 0.990589 1.16543 0.984579 0.984323 0.984283 1.17173 0.984156 0.884535 0.990566 0.990709 0.940632 1.15925 0.897039 0.940453 0.947033 0.946809 1.16571 0.940484 0.890461 0.940527 0.94074 0.953209 1.1779 0.89074 0.946916 0.946754 0.884586 0.946712 1.16581 0.953261 0.953267 0.877913 0.953268 0.959522 0.95931 0.884326 0.965453 0.965838 0.959523 1.15961 0.878322 0.959536 0.953208 0.965609 0.959402 0.871672 1.15297 0.965449 0.946693 0.940574 0.940833 1.16572 0.890391 0.946668 0.94681 0.953246 1.15924 0.95298 0.884437 0.940784 0.940687 0.940425 0.946922 0.884549 0.952876 0.946756 0.953253 1.15295 0.959242 0.953137 0.959498 1.15333 0.897014 0.95945 0.965446 0.965705 0.959323 0.959476 0.897053 0.96539 1.15322 0.753304 0.96584 0.965554 0.903018 1.15929 0.971846 0.909172 0.965792 1.16547 0.971956 0.90312 0.978282 1.15956 0.753077 0.978124 0.896805 0.972003 1.17183 0.753192 0.896649 0.971696 0.984279 1.17211 0.7531 0.890639 0.978291 0.977883 0.734398 0.89057 1.16583 0.978147 0.984536 0.990794 0.902894 0.984465 1.1718 0.984324 0.734364 0.990755 0.996965 1.17799 0.990472 0.903115 0.996757 0.990473 0.990438 1.17808 0.996673 0.996765 0.971824 0.971991 0.896863 0.971809 1.15927 0.978213 0.740867 0.977965 1.16581 0.971808 0.971648 0.84075 1.17166 0.977988 0.978287 0.98433 0.984513 1.17207 0.834521 0.984263 0.990453 0.984322 0.84081 1.17211 0.997103 0.746969 0.990865 0.990396 0.834508 0.984378 0.990389 0.990742 1.17794 0.740723 0.997106 0.846761 0.996994 1.18416 0.84701 0.740424 0.846914 1.17208 0.740646 0.840675 0.702997 1.1842 0.834416 0.746916 0.828143 0.746631 1.17837 0.828067 0.709417 0.746729 0.840692 1.17815 0.709449 0.753365 0.834197 1.18419 0.840624 0.703047 0.753265 1.17184 0.715626 0.859236 1.18441 0.753229 0.721657 0.853065 1.17815 0.753127 0.715486 1.19692 0.859465 0.752955 0.721653 1.19038 0.759141 0.852998 1.18419 0.75921 0.865814 0.703111 0.759569 0.865598 1.19684 0.703146 0.76563 0.859532 1.19707 0.721665 0.759316 1.19064 0.859216 0.715382 0.759577 1.19086 0.846846 0.753303 1.18417 0.846948 0.721732 0.759215 1.19085 0.71586 0.84667 1.19697 0.853109 0.728169 0.765751 1.19676 0.859541 0.853106 0.765489 0.728257 0.82792 1.19669 0.77169 0.828066 1.19081 0.734283 0.821631 0.765496 1.17806 0.734145 0.834412 0.772036 1.17803 0.728334 0.834135 1.19042 0.702908 0.740411 1.1844 0.83459 1.18428 0.815603 1.18413 0.746993 1.17811 0.822028 0.746832 1.17817 0.815764 1.19064 0.740491 0.809302 1.18462 0.715411 0.821664 1.18435 0.727996 0.828285 1.1906 0.821707 0.734213 0.815394 1.19687 0.734428 0.840798 1.1842 0.721858 0.728118 0.840863 1.19678 0.715839 0.840606 0.740708 0.721749 1.19702 0.853154 0.74694 0.846872 0.721683 1.19086 0.852994 0.728012 0.740874 0.847054 0.721653 1.19062 0.83452 0.728323 0.747061 0.828078 1.19085 0.734323 0.828321 0.715613 0.728255 0.834172 0.709589 1.1968 0.74082 0.840397 1.19672 0.734244 0.834336 1.19701 0.728299 0.840693 0.722123 0.871943 1.15939 0.871999 0.72803 0.728086 1.15926 0.865456 0.721967 0.740585 1.15931 0.884458 0.734127 0.715427 0.878118 1.15958 0.721998 0.734387 1.14711 0.878214 1.15926 0.740483 1.15301 0.734207 0.865537 1.15944 0.859343 1.16572 0.865396 0.709464 1.16576 0.871922 0.70292 0.715689 1.16574 0.8782 0.722007 1.17171 0.872021 0.715691 1.1719 0.734539 0.87196 1.16542 0.715412 0.740515 1.16562 0.715708 0.865678 0.740729 0.890795 0.884586 0.722091 0.74075 0.88445 0.709151 1.16566 0.890787 0.734371 0.703065 0.896848 0.703332 0.896831 1.17169 0.709227 0.747026 0.890462 0.721851 0.878083 1.17174 0.715747 0.746939 1.15325 0.878084 1.15945 1.15937 0.734167 1.15913 0.884529 0.73443 1.16542 0.721894 0.884219 1.15944 1.1529 1.15959 0.859374 1.1656 0.715631 0.740379 0.853295 1.16541 0.728078 1.15923 0.859317 0.734422 1.17187 1.16555 0.753359 0.734483 0.865652 1.17209 0.728339 0.859303 0.747049 1.17816 0.753265 0.740782 1.17199 1.17196 0.740773 1.16556 0.746808 1.16562 0.740586 1.17176 0.865694 0.728232 1.17205 0.753136 1.17832 0.727902 0.84673 1.17799 0.759466 0.846892 0.734561 1.17171 0.753375 0.853047 1.1782 0.734127 1.17817 0.840836 0.759458 0.740575 0.853026 1.18441 0.740441 0.77164 0.846783 1.17804 0.740717 0.853372 0.765856 0.746706 1.17824 0.877933 0.740624 1.17809 0.872023 0.765624 0.74701 1.18439 0.771895 0.872083 0.753311 1.18428 0.884203 0.759433 0.746765 1.18436 0.8846 1.19047 0.759422 0.753031 0.878191 1.18454 0.753072 0.75923 0.865758 1.19057 0.752882 0.75297 1.19041 0.746727 1.19683 0.859382 0.772076 0.747101 0.746791 1.19677 0.872115 0.765393 0.753344 1.19702 0.859464 0.772053 0.759218 1.18427 0.877932 0.765865 1.1908 0.752928 0.759269 0.865699 0.778352 1.19711 0.871649 1.19058 0.759136 0.784255 0.765544 0.86563 0.778322 1.19687 0.765776 0.78449 1.19062 0.759317 0.928132 1.18444 0.790874 0.771907 0.921932 1.17811 0.765653 1.17819 0.921757 0.771674 1.19079 0.921693 0.79692 0.765863 1.18422 0.9344 0.790489 0.759295 1.17834 0.928048 0.765469 0.790726 0.922109 1.18446 0.772005 0.778255 0.915629 1.17808 0.77791 0.778368 0.915618 1.18429 0.777945 0.777988 0.921956 0.77163 0.78431 0.928301 1.18425 0.790518 0.74664 0.921884 0.784477 1.18454 0.753065 0.928226 1.19712 0.746789 0.75932 0.940684 0.753083 1.19064 0.759504 0.940849 0.752889 0.759338 0.934574 0.752881 0.765558 0.94665 1.19062 0.753297 0.940692 0.746649 0.753014 0.946719 1.19666 0.7471 0.934306 0.759546 1.19696 0.75291 0.934243 0.759569 1.19675 0.946741 0.772003 0.765471 0.765667 0.940507 0.759595 1.19056 0.759601 0.772009 0.940462 0.765799 0.915398 0.765429 1.19081 0.76543 0.90936 0.765729 1.19696 0.771856 0.921815 0.759145 0.765844 0.921759 0.771712 0.75329 0.915689 1.19697 0.778229 0.909215 0.771671 0.759255 0.915669 0.777882 1.19694 0.909199 0.996991 0.778175 0.772081 0.903179 1.00337 0.765618 1.00333 1.00937 0.915671 1.00937 0.771743 0.771817 1.00326 1.00337 0.997049 0.771986 0.921756 1.0092 1.00962 0.765794 0.921668 1.0095 0.771774 1.00325 1.01556 0.772119 1.01546 0.915742 0.778288 1.01569 0.784257 0.928199 0.778208 1.02192 0.784208 1.02198 1.02211 0.928081 1.01538 1.01565 0.784429 0.777984 1.02196 0.928116 1.02179 1.00303 0.797009 0.759498 0.934232 0.996989 1.00312 1.00924 0.790695 0.753253 1.00934 0.934483 1.00328 0.790565 0.996739 1.00292 1.00336 0.797116 1.00955 0.934282 1.00953 0.765641 0.790464 1.00943 1.01576 1.01566 0.92807 0.778252 1.01587 0.759598 1.02171 1.02809 0.77822 1.02169 0.921845 1.02163 0.765784 1.01555 0.777895 1.01561 0.759184 0.92821 1.02163 0.784156 0.759212 1.02171 0.934573 1.02825 0.79044 1.02824 0.765404 0.934502 1.02803 1.04059 0.759349 0.928329 0.784241 1.03441 0.765788 1.03456 0.934612 1.03413 0.953341 0.790497 1.02797 0.953341 0.772112 1.02799 0.953117 1.04073 0.965434 0.772018 0.959615 1.03449 0.959315 1.04688 0.765396 0.959528 1.0407 1.05291 0.771865 0.947029 1.05326 1.04683 1.05325 0.771845 0.953245 1.0404 0.76543 1.04682 0.946675 1.04067 1.04703 0.771928 1.04708 0.715616 0.959151 1.02824 0.778037 1.03416 1.02822 1.03432 0.959603 0.778217 0.709131 1.04074 1.03428 1.02832 0.952953 1.028 0.971664 0.777948 0.703272 1.03452 0.965765 1.04076 1.03449 0.965511 0.709201 1.03452 0.77172 0.972014 1.04709 0.978321 1.04059 0.971844 1.04075 0.978118 0.777934 1.05326 0.978354 0.709352 1.05303 1.04682 0.965771 1.05313 0.778237 0.965808 0.778035 0.959469 1.04038 0.784181 0.715682 1.04701 0.972051 1.04081 0.97169 1.05336 0.784239 0.721748 1.04674 0.996962 1.00317 0.721826 0.996812 1.0094 0.978071 0.715778 1.00308 0.784204 1.00289 0.940707 0.990736 0.79084 0.996812 0.997059 1.00317 0.946735 0.765668 1.0029 0.734409 0.9405 1.01585 0.765731 1.00932 0.953271 1.01566 1.00932 1.02197 0.734336 1.02183 0.947022 1.01565 1.02202 0.771866 0.728203 1.00956 0.940485 0.77177 1.0096 1.01571 0.740457 1.01586 0.946702 1.01585 0.772036 0.990504 0.99072 0.990456 0.746816 1.00307 0.996922 0.940755 0.996861 0.740858 0.997044 0.990428 0.778058 0.746846 0.984554 0.996728 0.940556 0.777886 0.990554 0.740663 0.996833 0.952934 1.00316 0.72791 0.771838 1.00929 0.947083 1.00311 0.734333 1.00923 1.01548 0.772038 1.00941 0.734212 1.00323 0.947085 1.00304 1.00318 0.728134 0.778165 1.01561 0.959517 1.00925 1.00922 0.746858 0.784261 1.00925 1.02796 1.02799 0.778239 1.02794 0.740687 0.953263 0.784432 1.03437 1.04067 0.784459 0.746821 1.03451 0.965436 1.02183 0.778077 0.740766 1.02165 0.965779 0.971892 0.78432 0.703258 0.78446 1.02181 0.784386 0.971974 0.709349 0.790807 1.02809 1.0344 0.790644 1.02819 0.703279 1.02794 1.04053 1.04072 0.709213 1.04703 0.796829 1.04693 0.965675 1.04669 1.05314 0.79082 0.71563 1.04087 0.959204 1.03418 1.04663 0.790744 1.04065 0.953052 0.721992 1.0217 0.797016 1.01559 1.03434 1.02826 0.722075 0.953091 1.03413 0.790449 1.028 1.01573 0.715875 0.959549 1.02201 0.790695 1.0221 0.959427 0.796979 0.702941 0.903031 0.709283 1.01578 0.903071 0.709156 1.02808 0.796631 1.02799 1.02195 0.703285 0.897116 1.03413 0.803013 1.04048 0.909225 1.04044 0.72199 0.803317 0.903141 1.04688 1.04667 0.909289 1.04705 0.784217 0.715438 1.03433 0.896957 1.03458 0.784592 1.02792 0.721861 1.0406 0.890804 1.04686 0.790586 0.715592 1.04058 0.890447 0.784262 1.06543 0.734473 1.05931 0.903255 0.790777 1.05954 0.728246 1.06572 1.06557 0.909507 1.06545 0.790814 1.05321 0.903209 1.05956 0.734419 1.05337 0.790808 1.06539 1.06568 0.896893 0.746747 1.05949 1.05939 0.796775 1.0719 0.915421 0.740851 1.07169 0.796673 1.07181 1.07797 0.915663 0.790676 0.740718 1.07796 0.909589 0.796702 1.07815 0.746698 1.07185 0.796885 1.07163 0.928279 0.74668 0.803042 1.07835 0.921871 1.07808 1.05926 0.734196 0.803165 0.915745 1.05932 1.05956 0.728008 0.796693 1.06567 0.922117 1.06586 1.06552 0.72796 0.796956 1.05915 0.909355 1.05297 0.802879 1.07191 0.73452 1.06582 1.05925 0.90935 1.07164 0.803263 0.727876 1.06581 0.915582 0.802985 0.734539 0.921837 1.07189 1.07796 0.802957 1.07187 0.746911 0.915853 1.07796 0.740651 1.0779 1.06587 0.809388 0.890504 1.07206 0.740561 1.08435 0.809334 1.0782 0.884447 1.07188 0.752982 1.08449 0.809537 1.08418 1.08447 0.890454 1.09051 1.09047 0.809217 0.896698 1.0905 0.759188 1.09054 0.809178 1.08446 0.759372 0.89671 1.08435 0.815771 1.09044 0.752985 1.0968 1.09696 0.815855 1.09068 0.878161 1.09663 0.821771 1.09684 1.09695 0.81564 0.871815 0.765806 1.10318 1.10336 1.10302 0.821937 1.10932 0.87815 1.10313 1.09674 0.797004 0.77197 1.10943 1.10326 1.08415 0.890685 0.759423 1.08442 0.803111 1.07826 0.765855 1.09058 0.884512 0.803045 1.09078 1.08439 0.753136 0.803032 1.07821 0.884425 1.09067 0.753364 0.809472 1.08414 1.09706 0.909595 0.75915 1.0844 0.809516 1.09689 1.0969 1.10332 0.903326 0.759303 0.809408 1.10337 0.902998 1.10946 0.80324 0.771835 1.09676 0.915466 0.809219 1.10303 0.771677 1.10334 0.815833 0.909139 1.09079 1.09677 0.765793 1.1155 0.809186 0.909493 1.05315 0.765568 0.815705 1.05328 1.05323 0.896942 1.05927 0.778155 0.815722 1.05917 1.05942 1.05335 0.821679 1.05301 0.890444 0.777941 0.815535 1.04695 1.0594 1.06553 0.78451 0.890656 1.0595 1.05955 0.815867 1.0658 0.790679 1.06548 1.07163 1.07209 0.784163 0.821936 0.902992 1.078 0.790744 1.06559 0.821756 1.07207 1.06567 0.897003 1.07178 0.777999 0.821683 1.07827 1.07196 0.771838 1.05923 0.902918 0.827904 1.05288 0.778248 1.05333 1.06543 0.821811 1.05957 1.05311 0.896666 0.828342 1.04697 0.784145 0.822058 1.05933 0.934505 1.05333 1.05933 0.827987 1.072 0.790756 1.06559 0.928304 0.828034 1.07796 0.934528 0.784134 1.07182 1.06577 0.834482 1.05913 1.06547 0.940755 0.790768 1.07187 0.834388 1.07188 1.06539 0.940384 1.07806 0.784326 1.08436 0.77792 1.09058 1.08458 1.09039 0.75321 1.08414 1.07798 0.777982 1.078 0.934172 1.0908 0.752941 1.08461 0.778166 1.08448 1.09044 0.759308 1.09675 1.09688 0.927885 1.10928 0.765637 0.784475 1.10922 0.921674 0.75919 1.0969 0.921858 0.784418 1.10294 1.0971 0.76555 0.927991 1.0906 0.790412 1.09086 0.753103 0.934429 1.09693 0.778222 1.09666 0.928035 1.07826 0.746681 1.07166 1.07824 0.934323 0.78421 0.752891 1.08425 1.08423 0.78436 1.08413 0.953043 0.765633 1.07791 0.784516 1.07803 0.94682 0.759545 0.759558 1.07822 0.796898 0.765739 0.79043 1.08425 0.940455 0.790584 0.765866 1.09044 1.09074 0.790616 0.771731 0.946697 1.08423 1.10332 0.778033 1.09695 0.790568 0.771915 0.953243 1.09087 0.796998 0.778205 0.959268 1.0904 0.777905 0.796784 0.784436 1.08417 0.796776 0.7843 0.946788 0.803165 0.778292 1.09709 0.953016 0.80303 0.771933 1.09059 0.99066 0.940598 0.797097 0.98433 0.778319 0.940436 0.984175 0.996692 0.803106 0.990771 0.953362 0.77201 0.990828 0.978203 0.80331 0.98446 0.784136 0.946719 0.984621 0.796784 0.990813 0.784495 0.984601 0.947101 0.990389 1.00306 0.80314 0.784446 0.92197 0.997017 1.00333 0.809499 0.996645 1.01574 0.915687 1.00925 0.803001 0.809622 0.996906 0.997109 0.928294 1.00331 1.00957 0.809224 1.00924 0.927946 1.00316 0.784488 0.921921 0.978215 0.803038 0.977911 0.784246 0.915779 0.784587 0.797085 0.978126 0.902942 0.796941 0.796685 0.790672 0.909227 0.796625 0.815395 0.972024 0.915469 0.796921 0.984262 0.802927 0.79084 0.921643 0.809496 0.79052 0.984168 0.909185 0.803296 0.790638 0.984247 0.78422 0.796682 0.915761 0.965598 0.790626 0.803278 0.934612 0.797119 0.796851 0.802908 0.934196 0.809215 0.971835 0.796724 0.928154 0.809562 0.815726 0.940516 0.802998 0.965756 0.809189 0.940465 0.80925 0.803124 0.921868 0.977935 0.815814 0.928155 0.809437 0.815579 0.971772 0.922069 0.81576 0.821744 0.815535 0.978089 0.82208 0.809285 0.990431 0.815566 0.940381 0.803344 0.834414 0.934558 0.828007 0.990536 0.809367 0.934348 0.834602 0.990751 0.815611 0.928333 0.815675 1.0033 0.821719 0.821989 0.997091 0.940686 0.821786 0.821773 0.996996 0.934296 0.821893 0.809236 0.996981 0.827908 0.80915 0.940473 0.828253 0.809571 0.984322 0.815791 0.946819 0.834518 0.984245 0.821637 0.828237 0.815406 0.947089 0.978021 0.815843 0.990784 0.834433 0.821651 0.946706 0.990541 0.803149 0.815559 0.809352 0.984457 0.95331 0.815875 1.01574 0.809235 1.02211 0.821691 1.01586 1.02803 0.803034 1.02791 0.821805 0.946653 1.0221 0.803218 1.00933 0.82806 0.815849 1.0154 0.953349 0.809623 0.827968 1.01555 0.815438 1.02207 0.821801 0.803336 1.02194 0.828251 0.953242 0.796655 1.02168 0.83424 1.03461 1.03439 0.828012 0.796955 0.959592 1.03451 0.82824 1.04087 0.959233 1.04042 0.796839 0.834392 1.02789 0.840601 0.95297 0.809424 1.02816 0.809568 0.953266 0.840763 1.02799 0.959547 0.83456 0.802976 1.03432 0.834269 1.03423 0.959625 0.821834 0.840618 1.03452 0.971718 0.840755 0.821923 1.00923 0.965861 0.846799 1.00295 0.959381 0.840555 0.822015 1.00914 0.815673 1.00324 0.834217 0.822122 0.965593 0.828068 1.01557 0.821843 1.01553 0.822089 0.828246 0.965622 0.997121 0.828287 0.815485 0.965728 1.00337 0.834281 0.971772 0.81542 0.99665 0.828353 0.821995 1.00954 0.834279 1.00915 0.828256 0.97211 0.827925 1.00335 0.822009 0.953092 0.834374 1.02171 0.959232 0.828284 1.02176 0.828309 0.828331 1.02809 0.959184 1.02826 0.834416 0.840795 0.96582 1.01551 0.834275 0.971969 0.834209 0.846897 1.02173 0.840803 0.965867 1.02207 0.834386 0.840522 0.959419 1.01558 0.840573 0.847104 0.840761 1.02834 0.846866 1.02203 0.853021 0.853098 0.965811 0.965592 0.840708 0.853313 0.959255 0.840706 0.959281 0.965571 0.846726 0.840392 0.971898 0.965469 0.846662 0.853101 0.96553 0.846843 0.84068 0.965426 0.846962 0.853178 0.971693 0.840563 0.971765 0.846755 0.971675 0.846958 0.95962 0.853226 0.971814 0.85322 0.709287 0.953346 0.978174 0.852991 0.959233 0.977915 0.703266 0.865786 0.96578 0.715572 0.984255 0.965514 0.859549 0.709355 0.977918 0.959197 0.865399 0.972026 0.722094 0.715832 0.859236 0.871664 0.984305 0.721986 0.97833 0.86563 0.978161 0.72181 0.871752 0.702978 0.978175 0.978344 0.871703 0.990768 0.85948 0.98415 0.984135 0.984589 0.859204 0.728061 0.98461 0.990445 0.859211 0.721829 0.971965 0.865503 0.965695 0.71546 0.972088 0.721875 0.871738 0.971928 0.984528 0.978102 0.978329 0.734611 0.865429 0.971633 0.727893 0.978057 0.840444 0.98458 0.728272 0.952978 0.834202 0.734325 0.834298 0.747002 0.947007 0.978181 0.840657 0.740868 0.977977 0.846627 0.7344 0.946882 0.846698 0.740697 0.846699 0.978294 0.959447 0.984243 0.734156 0.840659 0.953278 0.727936 0.990527 0.83454 0.734199 0.95939 0.740658 0.834279 0.984506 0.84062 0.746736 0.947056 0.990384 0.846686 0.746708 0.984348 0.746686 0.847122 0.977934 0.940646 0.740522 0.852921 0.709463 0.984515 0.93449 0.702917 0.859146 0.990538 0.709325 0.853361 0.996693 0.947091 0.865543 0.71587 0.953038 0.99047 0.859185 0.721837 0.865434 0.997112 0.940438 0.715851 0.859373 1.00303 0.946894 0.990504 0.853202 0.853306 1.00293 0.971871 0.852994 0.997041 0.965759 0.859343 0.865565 0.715779 0.965504 0.996706 0.865789 0.722029 0.865828 1.00922 0.721677 0.79705 0.978209 0.796638 0.809166 1.00313 0.802905 0.971871 0.734178 0.803317 0.990668 0.734372 0.971717 0.809212 0.72814 0.802993 0.984266 0.959412 0.796869 0.984512 0.746764 0.790639 0.959526 0.740771 0.796871 0.953173 0.747053 0.809422 0.996703 0.802992 0.953178 0.740621 0.802955 0.965441 0.728299 0.990418 0.809379 0.96539 0.728203 0.815498 0.996653 0.959319 0.822074 0.734168 0.996769 0.81558 0.734489 0.990509 0.815437 0.996958 0.996923 0.822016 0.990739 0.740554 0.990526 0.827975 0.990499 0.747028 1.00333 0.828027 0.746859 0.827903 1.00308 0.809292 1.00302 0.996728 0.740469 0.822008 0.997095 0.740448 0.815756 1.00297 0.753249 0.759244 0.821724 0.990501 1.00307 0.753221 0.828227 0.984447 0.759618 0.82187 0.765517 1.00322 0.797023 0.990642 0.7658 1.0094 0.997042 0.746725 0.790819 0.753038 1.0092 0.790628 0.759388 0.996968 0.803163 0.753278 1.00938 0.803304 0.76544 1.01547 0.996922 0.796949 0.759315 1.0093 1.0096 0.765542 0.790823 1.00305 0.765853 1.00922 0.796928 0.771878 1.01574 1.00918 0.790511 0.778147 1.02201 0.803351 0.772085 1.0157 1.00937 0.797118 0.784587 1.01577 0.77801 0.797108 1.00334 0.784286 0.965825 0.803089 0.77819 1.00926 0.772073 0.809292 0.971957 0.7782 1.00298 0.81584 0.971934 0.771924 0.815661 0.784136 1.00326 0.977894 0.809296 0.778057 0.815537 0.984473 0.784344 1.00955 0.828152 0.784504 1.01566 0.821816 0.759226 0.978323 0.822012 1.0093 0.752924 0.815555 0.978274 0.759343 0.809615 0.759602 0.984468 0.809444 0.971976 0.978334 0.753075 0.809143 0.978111 0.7655 0.971986 0.821684 0.978085 0.771909 0.821668 0.971646 0.978029 0.765811 0.821695 0.984197 0.98414 0.759321 0.815679 0.984289 0.753327 0.990577 0.840448 0.984361 0.753293 0.990727 0.990715 0.765569 0.971752 0.771932 0.83446 0.990752 0.834556 0.965638 0.765726 0.996876 0.971942 0.840625 0.765458 0.997084 0.984354 0.846769 0.97815 0.997095 0.77193 0.840737 0.771674 0.990638 0.978007 0.846921 0.778211 0.996695 0.996771 0.83424 0.99681 0.777881 0.834578 0.990765 1.00295 0.790649 0.840619 0.996725 1.00297 0.834484 0.790472 0.996958 1.0031 0.846627 0.977897 0.990634 0.984487 0.784418 0.984429 0.847028 0.990819 0.984515 0.984352 0.790714 0.840739 0.990862 0.984276 0.990592 0.990598 0.784145 0.859255 0.990454 0.996707 0.777939 0.996856 0.853133 0.99057 0.984433 0.777881 0.853124 0.990843 0.990732