# vtk DataFile Version 3.0
vtk output
ASCII
DATASET UNSTRUCTURED_GRID
POINTS 44496 float
0 0 0
0.00998608 0 0
0.0114169 0.00969465 0
0.00462192 0.0139221 0
0 0.0139049 0
0 0 0
0.421691 0.902881 0
0.428029 0.901465 0
0.434541 0.904774 0
0.428503 0.918698 0
0.420187 0.918725 0
0.421691 0.902881 0
0.0159226 0.0118694 0
0.022593 0.00969173 0
0.0301575 0.0157857 0
0.0302193 0.0159395 0
0.0205983 0.0259033 0
0.0190634 0.0261904 0
0.0181244 0.0254679 0
0.0159226 0.0118694 0
0.022593 0.00969173 0
0.0246685 0 0
0.0366201 0 0
0.0301575 0.0157857 0
0.022593 0.00969173 0
0.428503 0.918698 0
0.434541 0.904774 0
0.436295 0.904575 0
0.444679 0.91286 0
0.440834 0.921185 0
0.433608 0.922559 0
0.428503 0.918698 0
0.759027 0.464786 0
0.761328 0.473245 0
0.757926 0.477102 0
0.746609 0.475971 0
0.746801 0.464139 0
0.759027 0.464786 0
0.00998608 0 0
0.0246685 0 0
0.022593 0.00969173 0
0.0159226 0.0118694 0
0.0114169 0.00969465 0
0.00998608 0 0
0.400631 0.429471 0
0.408792 0.424437 0
0.415257 0.428517 0
0.416098 0.434746 0
0.407727 0.440656 0
0.403551 0.439081 0
0.400631 0.429471 0
0.413999 0.919197 0
0.418655 0.919649 0
0.421501 0.933646 0
0.416515 0.937175 0
0.409027 0.933613 0
0.406993 0.926604 0
0.413999 0.919197 0
0 0.0139049 0
0.00462192 0.0139221 0
0.0107872 0.0253342 0
0 0.0345206 0
0 0.0139049 0
0.742989 0.479229 0
0.746609 0.475971 0
0.757926 0.477102 0
0.759658 0.488078 0
0.759426 0.488379 0
0.75048 0.489994 0
0.742989 0.479229 0
0.415257 0.428517 0
0.424117 0.422222 0
0.430631 0.428107 0
0.430419 0.433463 0
0.422738 0.438617 0
0.416098 0.434746 0
0.415257 0.428517 0
0.420187 0.918725 0
0.428503 0.918698 0
0.433608 0.922559 0
0.430648 0.932742 0
0.426959 0.934506 0
0.421501 0.933646 0
0.418655 0.919649 0
0.420187 0.918725 0
0 0.0345206 0
0.0107872 0.0253342 0
0.0181244 0.0254679 0
0.0190634 0.0261904 0
0.0179046 0.0313061 0
0.0083786 0.0383007 0
0 0.0347422 0
0 0.0345206 0
0.761328 0.473245 0
0.768258 0.474097 0
0.772695 0.480161 0
0.769275 0.486837 0
0.759658 0.488078 0
0.757926 0.477102 0
0.761328 0.473245 0
0.00462192 0.0139221 0
0.0114169 0.00969465 0
0.0159226 0.0118694 0
0.0181244 0.0254679 0
0.0107872 0.0253342 0
0.00462192 0.0139221 0
0.432077 0.873412 0
0.435298 0.87086 0
0.442771 0.871728 0
0.444262 0.884718 0
0.439077 0.888605 0
0.433018 0.887281 0
0.432077 0.873412 0
0.774527 0.464343 0
0.778145 0.464178 0
0.783981 0.474528 0
0.780058 0.479371 0
0.772695 0.480161 0
0.768258 0.474097 0
0.774527 0.464343 0
0.0205983 0.0259033 0
0.0302193 0.0159395 0
0.0329806 0.0173066 0
0.0361954 0.0292964 0
0.0308759 0.0319126 0
0.0205983 0.0259033 0
0.445974 0.380601 0
0.454523 0.374961 0
0.460855 0.382035 0
0.456931 0.391604 0
0.447482 0.389656 0
0.445974 0.380601 0
0.0301575 0.0157857 0
0.0366201 0 0
0.0374225 0 0
0.0449143 0.0144177 0
0.0436964 0.0157204 0
0.0329806 0.0173066 0
0.0302193 0.0159395 0
0.0301575 0.0157857 0
0.442771 0.871728 0
0.447801 0.868047 0
0.45472 0.870397 0
0.454636 0.884448 0
0.453313 0.885701 0
0.444262 0.884718 0
0.442771 0.871728 0
0.432795 0.384981 0
0.438519 0.377621 0
0.445974 0.380601 0
0.447482 0.389656 0
0.442362 0.394322 0
0.433721 0.389604 0
0.432795 0.384981 0
0.0374225 0 0
0.0513261 0 0
0.0504895 0.0133763 0
0.0449143 0.0144177 0
0.0374225 0 0
0.748118 0.501078 0
0.746313 0.496805 0
0.75048 0.489994 0
0.759426 0.488379 0
0.762017 0.501899 0
0.761094 0.502776 0
0.748118 0.501078 0
0.0541763 0.0149544 0
0.0504895 0.0133763 0
0.0513261 0 0
0.0631416 0 0
0.0635657 0.00449002 0
0.0541763 0.0149544 0
0.454636 0.884448 0
0.45472 0.870397 0
0.460606 0.868043 0
0.464996 0.869763 0
0.4675 0.884185 0
0.454636 0.884448 0
0.454523 0.374961 0
0.454748 0.373223 0
0.464357 0.366336 0
0.470822 0.373343 0
0.468986 0.381019 0
0.460855 0.382035 0
0.454523 0.374961 0
0.0541763 0.0149544 0
0.0635657 0.00449002 0
0.0706534 0.0128757 0
0.0627655 0.0201653 0
0.0564271 0.0183108 0
0.0541763 0.0149544 0
0.780058 0.479371 0
0.784139 0.488814 0
0.778599 0.495524 0
0.774687 0.495323 0
0.769275 0.486837 0
0.772695 0.480161 0
0.780058 0.479371 0
0.444262 0.884718 0
0.453313 0.885701 0
0.454963 0.897704 0
0.452979 0.899147 0
0.441578 0.897443 0
0.439077 0.888605 0
0.444262 0.884718 0
0.0329806 0.0173066 0
0.0436964 0.0157204 0
0.0456033 0.0282236 0
0.0417232 0.0310197 0
0.0361954 0.0292964 0
0.0329806 0.0173066 0
0.759658 0.488078 0
0.769275 0.486837 0
0.774687 0.495323 0
0.7686 0.501681 0
0.762017 0.501899 0
0.759426 0.488379 0
0.759658 0.488078 0
0.453313 0.885701 0
0.454636 0.884448 0
0.4675 0.884185 0
0.468621 0.88506 0
0.463985 0.899436 0
0.454963 0.897704 0
0.453313 0.885701 0
0.780058 0.479371 0
0.783981 0.474528 0
0.789056 0.474122 0
0.795574 0.484215 0
0.792754 0.489191 0
0.784139 0.488814 0
0.780058 0.479371 0
0.0436964 0.0157204 0
0.0449143 0.0144177 0
0.0504895 0.0133763 0
0.0541763 0.0149544 0
0.0564271 0.0183108 0
0.0511669 0.0285558 0
0.0456033 0.0282236 0
0.0436964 0.0157204 0
0.789056 0.474122 0
0.794512 0.468314 0
0.804506 0.472958 0
0.803295 0.4822 0
0.795574 0.484215 0
0.789056 0.474122 0
0.0558536 0.0336233 0
0.0511669 0.0285558 0
0.0564271 0.0183108 0
0.0627655 0.0201653 0
0.0658161 0.0272405 0
0.0574333 0.0337128 0
0.0558536 0.0336233 0
0.803295 0.4822 0
0.804506 0.472958 0
0.811009 0.468939 0
0.819071 0.478207 0
0.818466 0.480245 0
0.807024 0.485061 0
0.803295 0.4822 0
0.480013 0.879336 0
0.486719 0.87897 0
0.489241 0.892507 0
0.480023 0.895404 0
0.473026 0.885106 0
0.480013 0.879336 0
0.442626 0.398767 0
0.442362 0.394322 0
0.447482 0.389656 0
0.456931 0.391604 0
0.45937 0.395844 0
0.458671 0.398999 0
0.448876 0.403799 0
0.442626 0.398767 0
0 0.0347422 0
0.0083786 0.0383007 0
0.0118446 0.0463076 0
0.00619137 0.051051 0
0 0.0506602 0
0 0.0347422 0
0.480013 0.879336 0
0.473026 0.885106 0
0.468621 0.88506 0
0.4675 0.884185 0
0.464996 0.869763 0
0.472894 0.867065 0
0.480013 0.879336 0
0.0179046 0.0313061 0
0.0233076 0.0415567 0
0.0164725 0.0470831 0
0.0118446 0.0463076 0
0.0083786 0.0383007 0
0.0179046 0.0313061 0
0.45937 0.395844 0
0.470734 0.393351 0
0.475052 0.398056 0
0.473278 0.40569 0
0.464042 0.407555 0
0.458671 0.398999 0
0.45937 0.395844 0
0.783826 0.502534 0
0.778599 0.495524 0
0.784139 0.488814 0
0.792754 0.489191 0
0.79529 0.4952 0
0.792725 0.500334 0
0.783826 0.502534 0
0.0179046 0.0313061 0
0.0190634 0.0261904 0
0.0205983 0.0259033 0
0.0308759 0.0319126 0
0.0296774 0.042103 0
0.0233076 0.0415567 0
0.0179046 0.0313061 0
0.460855 0.382035 0
0.468986 0.381019 0
0.472073 0.38476 0
0.470734 0.393351 0
0.45937 0.395844 0
0.456931 0.391604 0
0.460855 0.382035 0
0.795574 0.484215 0
0.803295 0.4822 0
0.807024 0.485061 0
0.807995 0.494065 0
0.806864 0.49537 0
0.79529 0.4952 0
0.792754 0.489191 0
0.795574 0.484215 0
0 0.0506602 0
0.00619137 0.051051 0
0.0113037 0.05995 0
0.00273515 0.0682244 0
0 0.0683671 0
0 0.0506602 0
0.486719 0.87897 0
0.487626 0.878127 0
0.49735 0.876434 0
0.502773 0.886823 0
0.491111 0.893476 0
0.489241 0.892507 0
0.486719 0.87897 0
0.470822 0.373343 0
0.479469 0.370507 0
0.484645 0.377338 0
0.48276 0.38392 0
0.472073 0.38476 0
0.468986 0.381019 0
0.470822 0.373343 0
0.00619137 0.051051 0
0.0118446 0.0463076 0
0.0164725 0.0470831 0
0.0216172 0.0559389 0
0.0153999 0.0607282 0
0.0113037 0.05995 0
0.00619137 0.051051 0
0.8123 0.443563 0
0.817766 0.442838 0
0.82514 0.450349 0
0.817189 0.458878 0
0.807767 0.450482 0
0.8123 0.443563 0
0.46656 0.902365 0
0.463985 0.899436 0
0.468621 0.88506 0
0.473026 0.885106 0
0.480023 0.895404 0
0.478177 0.899193 0
0.46656 0.902365 0
0.0164725 0.0470831 0
0.0233076 0.0415567 0
0.0296774 0.042103 0
0.030868 0.043218 0
0.0265938 0.0565166 0
0.0216172 0.0559389 0
0.0164725 0.0470831 0
0.817766 0.442838 0
0.822251 0.433714 0
0.829467 0.435227 0
0.833023 0.443096 0
0.826235 0.450345 0
0.82514 0.450349 0
0.817766 0.442838 0
0.489241 0.892507 0
0.491111 0.893476 0
0.494273 0.901884 0
0.489908 0.909162 0
0.484244 0.908116 0
0.478177 0.899193 0
0.480023 0.895404 0
0.489241 0.892507 0
0.0403812 0.0547945 0
0.0356166 0.0437371 0
0.0420197 0.0391461 0
0.0497837 0.042266 0
0.0505473 0.0441856 0
0.0428932 0.0550605 0
0.0403812 0.0547945 0
0.826235 0.450345 0
0.833023 0.443096 0
0.839215 0.444015 0
0.841675 0.453629 0
0.8342 0.45981 0
0.826235 0.450345 0
0.484645 0.377338 0
0.495281 0.374889 0
0.498494 0.385649 0
0.49612 0.388318 0
0.486038 0.388928 0
0.48276 0.38392 0
0.484645 0.377338 0
0.441578 0.897443 0
0.452979 0.899147 0
0.451138 0.911699 0
0.444679 0.91286 0
0.436295 0.904575 0
0.441578 0.897443 0
0.82514 0.450349 0
0.826235 0.450345 0
0.8342 0.45981 0
0.834194 0.459866 0
0.826008 0.466563 0
0.817107 0.46193 0
0.817189 0.458878 0
0.82514 0.450349 0
0.0308759 0.0319126 0
0.0361954 0.0292964 0
0.0417232 0.0310197 0
0.0420197 0.0391461 0
0.0356166 0.0437371 0
0.030868 0.043218 0
0.0296774 0.042103 0
0.0308759 0.0319126 0
0.472073 0.38476 0
0.48276 0.38392 0
0.486038 0.388928 0
0.483394 0.396024 0
0.475052 0.398056 0
0.470734 0.393351 0
0.472073 0.38476 0
0.456894 0.915702 0
0.466464 0.903863 0
0.474985 0.917374 0
0.474879 0.918464 0
0.466844 0.921892 0
0.457806 0.918212 0
0.456894 0.915702 0
0.486038 0.388928 0
0.49612 0.388318 0
0.498869 0.400057 0
0.488888 0.403146 0
0.483394 0.396024 0
0.486038 0.388928 0
0.811009 0.468939 0
0.811413 0.467375 0
0.817107 0.46193 0
0.826008 0.466563 0
0.826625 0.473847 0
0.819071 0.478207 0
0.811009 0.468939 0
0.452979 0.899147 0
0.454963 0.897704 0
0.463985 0.899436 0
0.46656 0.902365 0
0.466464 0.903863 0
0.456894 0.915702 0
0.451138 0.911699 0
0.452979 0.899147 0
0.0497837 0.042266 0
0.0558536 0.0336233 0
0.0574333 0.0337128 0
0.0658446 0.0428234 0
0.0635845 0.0464972 0
0.0568971 0.0480321 0
0.0505473 0.0441856 0
0.0497837 0.042266 0
0.440834 0.921185 0
0.444679 0.91286 0
0.451138 0.911699 0
0.456894 0.915702 0
0.457806 0.918212 0
0.452234 0.927064 0
0.447422 0.927241 0
0.440834 0.921185 0
0.8342 0.45981 0
0.841675 0.453629 0
0.849398 0.455762 0
0.849895 0.461769 0
0.84496 0.468381 0
0.841408 0.469156 0
0.834194 0.459866 0
0.8342 0.45981 0
0.0417232 0.0310197 0
0.0456033 0.0282236 0
0.0511669 0.0285558 0
[...]
CELL_DATA 6400
FIELD FieldData 3
weight 1 6400 float
 0.050996 0.0524157 0.0511759 0.0512124 0.0523835 0.0541024 0.0510988 0.054784 0.0521661 0.051075 0.0540939 0.0548174 0.0522196 0.0511381 0.054024 0.0511049 0.0527751 0.05398 0.0512927 0.0547975 0.0513037 0.0527979 0.0547754 0.0513724 0.0540636 0.0514588 0.0528125 0.0547825 0.0515398 0.0539582 0.0526327 0.0513662 0.0539986 0.0526697 0.0539122 0.0514425 0.0538696 0.0515454 0.053786 0.0527238 0.0548099 0.0511267 0.0528491 0.0512241 0.0548413 0.0538975 0.0512775 0.0548162 0.0538283 0.0512034 0.052751 0.0548025 0.051252 0.0537531 0.052642 0.0513124 0.0536723 0.0525723 0.0514957 0.0535998 0.0548191 0.0524966 0.0536803 0.0513669 0.0548318 0.0524193 0.0548537 0.0537176 0.052481 0.0515982 0.0523206 0.0535356 0.051482 0.0548188 0.0536155 0.052218 0.0515403 0.0548487 0.0534158 0.0548434 0.0522503 0.0514116 0.053507 0.0548494 0.0525018 0.0515935 0.0533295 0.0523988 0.0516832 0.0533215 0.051591 0.0548751 0.0548746 0.0534668 0.0516822 0.0524842 0.0548689 0.0534307 0.051733 0.0548834 0.0522541 0.0548592 0.0517271 0.0536674 0.0523366 0.0516379 0.053752 0.0517768 0.0521973 0.053598 0.0519147 0.0548716 0.0518597 0.0518128 0.0536599 0.0548994 0.0519022 0.0519844 0.0519891 0.0535647 0.0517573 0.0535242 0.0519584 0.0548856 0.0518643 0.0534149 0.0518626 0.0520228 0.0549089 0.0533416 0.052074 0.0520888 0.0534774 0.0548925 0.0520198 0.0520404 0.0533323 0.0516379 0.0518922 0.0517663 0.0517893 0.054716 0.0518402 0.053363 0.0547859 0.0518559 0.0518741 0.0547518 0.0516298 0.0531875 0.0517471 0.0516424 0.0531146 0.0515716 0.0517942 0.0547353 0.0531788 0.0513068 0.0547515 0.0519744 0.0530742 0.0514609 0.0547811 0.0518719 0.0513672 0.0548146 0.0531083 0.0548455 0.0514151 0.0520688 0.0529367 0.0516722 0.0519542 0.0530197 0.0517145 0.0548468 0.052179 0.0529155 0.05176 0.0548723 0.0520704 0.0514911 0.0528488 0.054839 0.0514732 0.0548177 0.0521407 0.0529849 0.0521578 0.0519993 0.0528188 0.0521006 0.0528803 0.0548664 0.0521154 0.0519815 0.0532396 0.0547655 0.0521686 0.0519698 0.0531602 0.0547899 0.0512679 0.0548084 0.0530644 0.0512909 0.0518479 0.0532143 0.0514473 0.0519637 0.0513717 0.053275 0.0518806 0.0514558 0.054721 0.0531248 0.052127 0.0513223 0.0547449 0.0513832 0.0531565 0.0520384 0.0547652 0.0514536 0.0529881 0.052005 0.0515713 0.0529229 0.0519071 0.0517474 0.0548015 0.0528257 0.0516421 0.0548275 0.0516709 0.053054 0.0548519 0.0517337 0.0529702 0.0516555 0.0548536 0.0517475 0.0528623 0.0515639 0.0515127 0.0526767 0.0516692 0.0515191 0.0517659 0.0548342 0.0515254 0.052728 0.0518037 0.0526074 0.0518238 0.0548332 0.0514568 0.0525607 0.051423 0.0548737 0.0517821 0.0515959 0.0527652 0.0548915 0.0517208 0.0515501 0.0548973 0.0527311 0.0515067 0.0548926 0.0525795 0.0515689 0.0515313 0.0526463 0.0516869 0.0524838 0.0516684 0.0549025 0.0515547 0.0524475 0.0516521 0.0549092 0.0523663 0.0515991 0.0549035 0.0517252 0.0525013 0.0549129 0.0518249 0.0525051 0.054913 0.0548725 0.0524402 0.0518932 0.0523713 0.0548424 0.0517809 0.0527421 0.0549096 0.0548685 0.0526599 0.0549176 0.0519186 0.0548481 0.052583 0.0525843 0.0548439 0.0549169 0.0519554 0.0548114 0.0526901 0.0518866 0.0548405 0.0527573 0.0548767 0.0518921 0.0548617 0.052659 0.0548955 0.0520002 0.0548258 0.0548994 0.0525903 0.0519029 0.0548549 0.0548758 0.0525117 0.0520069 0.0548234 0.0523891 0.0519978 0.0524419 0.0548115 0.0520999 0.0525128 0.0548147 0.0524545 0.0521003 0.0548555 0.0523743 0.0547879 0.0548762 0.0521671 0.0523853 0.0547822 0.0549075 0.0520664 0.0532236 0.0547587 0.0522273 0.0531439 0.0547508 0.0549088 0.0522079 0.0530785 0.0548001 0.0548862 0.0547912 0.0532313 0.0522873 0.0549018 0.0547505 0.0519995 0.0547333 0.0532755 0.0547728 0.0521154 0.0531389 0.0547605 0.0521421 0.0529656 0.054891 0.0547194 0.0520683 0.0527875 0.0549001 0.0548367 0.0528714 0.0522465 0.0548071 0.052948 0.0536415 0.0547795 0.0521985 0.0530363 0.0548143 0.0523016 0.0528423 0.0547951 0.0536235 0.0522136 0.054769 0.0531902 0.0536213 0.0547465 0.0523823 0.0535988 0.0532366 0.0547856 0.0523794 0.0536513 0.0531066 0.0547087 0.0522918 0.0530516 0.0547476 0.052322 0.0531764 0.054737 0.0536607 0.0547057 0.0536528 0.0524729 0.0547382 0.0532612 0.0535958 0.0547783 0.0535979 0.0524059 0.0530844 0.0547586 0.0520515 0.0547185 0.0529194 0.052126 0.0536033 0.0529488 0.0547094 0.0522496 0.0535739 0.054698 0.053015 0.0522129 0.0536447 0.054728 0.0521599 0.0536216 0.0528038 0.0546943 0.0536207 0.0521967 0.0528639 0.0546704 0.0523397 0.0529539 0.0546877 0.0522682 0.0546791 0.0536871 0.0523554 0.0528551 0.0522812 0.0546423 0.0536699 0.0525056 0.0527484 0.0546421 0.0536806 0.0524174 0.0526738 0.0524411 0.0547283 0.0526018 0.0523397 0.0547248 0.0526862 0.0524211 0.0546617 0.053725 0.052488 0.0527741 0.0546953 0.053744 0.0522537 0.0525952 0.0537334 0.0523543 0.0525108 0.0546682 0.0524332 0.0546895 0.052295 0.0524261 0.0546546 0.053647 0.0523579 0.0523508 0.0547134 0.0536616 0.0524299 0.0525405 0.0546759 0.0536215 0.0525079 0.0524856 0.0546907 0.0536691 0.0525691 0.0523575 0.0546457 0.0524124 0.0546776 0.0525389 0.0527087 0.0546461 0.053733 0.0524401 0.0526018 0.0536897 0.0525146 0.0546384 0.0537014 0.0546286 0.0546033 0.0546016 0.0525385 0.0546181 0.0525897 0.0545715 0.0525245 0.0546086 0.0526097 0.0527808 0.0545701 0.0526911 0.0545717 0.0526875 0.0526827 0.0526002 0.0545333 0.0525781 0.0526637 0.0546702 0.0525664 0.054657 0.0527359 0.0546339 0.0527567 0.0525892 0.0546309 0.0527553 0.0545942 0.0525004 0.0528485 0.0546374 0.0528451 0.0524421 0.0545975 0.0528025 0.0545987 0.0546099 0.0528296 0.0523561 0.054566 0.0528886 0.0545552 0.0523537 0.052917 0.0545501 0.0524263 0.0527114 0.0545641 0.0526357 0.0546011 0.052647 0.0545579 0.0524618 0.0527245 0.054535 0.0523201 0.0526944 0.0545128 0.0528066 0.0545098 0.0545124 0.0527747 0.0544582 0.0528158 0.0522991 0.0544608 0.0528865 0.052373 0.0546704 0.0529445 0.0528841 0.0547019 0.0522901 0.0528587 0.0545983 0.0522914 0.0529566 0.0546533 0.0522666 0.0524354 0.0546627 0.0523653 0.0546187 0.0524703 0.0546046 0.0524106 0.0523665 0.0545399 0.0524212 0.0524961 0.0523333 0.0544471 0.0524434 0.0545577 0.0525369 0.0545022 0.0525107 0.0544369 0.0526025 0.0525947 0.0546244 0.0526709 0.0545649 0.052679 0.0526165 0.0546016 0.0525644 0.0545943 0.0526519 0.0545519 0.0525934 0.0545565 0.0545156 0.0525128 0.0544918 0.0545148 0.0525668 0.0544525 0.0535758 0.0526937 0.0535431 0.0544644 0.0523276 0.0535336 0.0535401 0.0543838 0.052238 0.0536031 0.0542962 0.0536037 0.0524283 0.054387 0.0535703 0.0543088 0.0522724 0.0535459 0.0541928 0.0534783 0.0522021 0.0535162 0.0542469 0.0534232 0.0523793 0.053473 0.0523891 0.0535161 0.0541375 0.0535589 0.0525785 0.0542272 0.0534768 0.0524901 0.0541436 0.053633 0.0541114 0.0536452 0.0526737 0.0544125 0.0535734 0.0524794 0.0543508 0.053684 0.0542586 0.052522 0.0542961 0.0537024 0.0536678 0.0543832 0.0526686 0.0536242 0.0543563 0.0526484 0.0535775 0.0542741 0.0541668 0.0535234 0.0528788 0.053507 0.0540593 0.0536066 0.0527927 0.0542101 0.0535796 0.0541166 0.0529669 0.0535233 0.0540732 0.05355 0.0527868 0.0545532 0.053796 0.0528644 0.0545539 0.054501 0.0529405 0.0537986 0.054499 0.0538431 0.0544638 0.0530221 0.053853 0.054491 0.0538944 0.0543977 0.0530706 0.0539018 0.0544051 0.0544314 0.0537904 0.0530586 0.0544502 0.0538022 0.0543557 0.0537533 0.0531636 0.0545038 0.05376 0.054453 0.0538482 0.0544495 0.0532145 0.0538827 0.0543909 0.0538331 0.0531152 0.0544063 0.0539326 0.0531598 0.0544004 0.0539801 0.0544608 0.0528467 0.0539562 0.0543346 0.052758 0.0543865 0.0539526 0.0543731 0.0529636 0.0540229 0.0543252 0.0529305 0.0540006 0.0542576 0.0527548 0.0540391 0.0543105 0.0539986 0.0528543 0.0543106 0.0539369 0.054333 0.052944 0.0539557 0.0542317 0.0539005 0.0542864 0.0530603 0.0539885 0.0542594 0.0531606 0.0540353 0.0541886 0.0540045 0.0532552 0.0540937 0.0537311 0.0541505 0.0530595 0.053796 0.0541647 0.0537439 0.0540655 0.0532309 0.0538565 0.0540964 0.0538089 0.0542933 0.0531216 0.0536983 0.0542205 0.0522313 0.0542123 0.0536498 0.0521802 0.0542278 0.0536297 0.0523356 0.0541555 0.0537458 0.0522676 0.0538038 0.0541448 0.0537418 0.0540803 0.0521501 0.0541334 0.0522273 0.0536766 0.0523075 0.0539146 0.0540014 0.0538571 0.0524339 0.0539889 0.0524078 0.0539169 0.0540635 0.0538648 0.0525676 0.0539645 0.0526408 0.0539528 0.0525113 0.0540057 0.0540317 0.0523899 0.0539702 0.052483 0.0539295 0.0545787 0.0525949 0.0538145 0.0545558 0.0521689 0.0538428 0.0520871 0.0545637 0.0537624 0.0522717 0.0522233 0.0538938 0.0545129 0.0521137 0.0544887 0.0521886 0.0538114 0.054532 0.0523772 0.0545416 0.0538796 0.0525272 0.0533779 0.0545345 0.0525612 0.053435 0.0544933 0.0533392 0.0523046 0.0544961 0.0533807 0.0524189 0.0545037 0.0534355 0.0544612 0.0524561 0.0534583 0.0544809 0.0525564 0.0534011 0.0544429 0.0533721 0.0527409 0.0544617 0.0533395 0.0532765 0.0529028 0.053327 0.0528294 0.0532341 0.0527828 0.0544228 0.0532582 0.0527159 0.0543902 0.0533158 0.0528724 0.054412 0.0533595 0.0530008 0.0544141 0.0532604 0.0544585 0.0530205 0.0544172 0.0534673 0.0543561 0.0531173 0.0534228 0.0543629 0.0529503 0.0534921 0.0544917 0.0530941 0.0544479 0.0535589 0.0526356 0.053453 0.0545029 0.0526802 0.0544447 0.0527595 0.0533813 0.0543905 0.0526624 0.0533195 0.0544026 0.0527701 0.0533363 0.0544521 0.0527144 0.0532686 0.0528744 0.0534041 0.054403 0.0530012 0.0533374 0.0543987 0.0530766 0.0532984 0.0543528 0.0529907 0.0533798 0.054339 0.0531869 0.0544174 0.0529025 0.0532097 0.0543699 0.053128 0.0528629 0.054338 0.0531426 0.0543668 0.0530747 0.0530325 0.0543082 0.0532103 0.0543073 0.0531565 0.0533384 0.0543488 0.0531167 0.0534146 0.0542592 0.0530131 0.053082 0.0534974 0.0542845 0.0542844 0.0529394 0.0532846 0.0542555 0.0529272 0.0541901 0.0533386 0.0530621 0.0530044 0.0534175 0.0541975 0.052977 0.0535035 0.0535871 0.0543795 0.0532383 0.0532124 0.0543276 0.0536449 0.0531711 0.054353 0.0527325 0.0532623 0.0536828 0.0542566 0.0525093 0.0532209 0.0542924 0.0531839 0.0542246 0.0535575 0.0530529 0.0543124 0.0525617 0.053649 0.0531136 0.0542993 0.0533191 0.0524622 0.0529936 0.0543077 0.0533641 0.0530717 0.0526019 0.0542534 0.0534447 0.0531411 0.0542399 0.0525372 0.0534593 0.0530171 0.0542241 0.0526287 0.0532358 0.0530941 0.0526612 0.0534141 0.0541916 0.0536102 0.0526915 0.0533376 0.0541479 0.0535301 0.0535573 0.0541856 0.0535334 0.054105 0.0535802 0.0536128 0.0536939 0.0536636 0.0540685 0.0535859 0.0536476 0.0541292 0.053459 0.0541794 0.0534901 0.0534438 0.0540356 0.0535844 0.0533894 0.0540988 0.0536005 0.0535258 0.0540696 0.0535609 0.0537644 0.0534367 0.0538243 0.0539869 0.0534822 0.0542295 0.0538683 0.053748 0.054241 0.0537331 0.0541825 0.0537219 0.054159 0.0537353 0.0536408 0.0540986 0.0538293 0.0536653 0.054184 0.0537942 0.0526314 0.0537905 0.0541381 0.0541279 0.0527175 0.0539377 0.0540777 0.0538464 0.0527963 0.0540089 0.0540123 0.053752 0.052744 0.0540779 0.053603 0.0527706 0.0539138 0.054147 0.0536865 0.0528462 0.0540421 0.0540099 0.05355 0.0526893 0.0540102 0.0539893 0.0535291 0.0527614 0.0539686 0.0537413 0.0536942 0.0540529 0.05284 0.0538044 0.0536218 0.0539775 0.0527525 0.0536753 0.0536283 0.0537455 0.0528107 0.0538879 0.053308 0.0538766 0.0529061 0.0539555 0.0532646 0.0528272 0.0539056 0.0538583 0.0533517 0.0539515 0.053887 0.0529385 0.0533132 0.0540431 0.0531782 0.052916 0.0543471 0.0531324 0.0539247 0.0530019 0.0543447 0.0530918 0.0538454 0.0542735 0.0530239 0.0540229 0.0530431 0.0542859 0.0529849 0.0531869 0.0542755 0.0532145 0.0529782 0.0542033 0.0532672 0.0533875 0.0532244 0.0542621 0.0534119 0.0530711 0.0541883 0.0533176 0.0531313 0.0528728 0.054199 0.0532185 0.0534682 0.052884 0.0541186 0.0534628 0.0531847 0.0529789 0.0541996 0.0532897 0.053393 0.0541974 0.0529221 0.0533139 0.0533533 0.0541389 0.0529642 0.0534789 0.0535587 0.0541288 0.0535617 0.0530204 0.0540605 0.0535232 0.0534377 0.0541352 0.0530653 0.0534499 0.0535369 0.0541218 0.0533039 0.053507 0.0540432 0.0530655 0.0540395 0.0532175 0.0531271 0.0540565 0.053148 0.0532689 0.0532442 0.0539532 0.0530549 0.0532389 0.0534497 0.0541856 0.0531329 0.053079 0.0533442 0.0541149 0.0531799 0.0533919 0.053208 0.0540769 0.0532156 0.0515674 0.0541148 0.0532862 0.0533521 0.051612 0.0540471 0.0534384 0.0540881 0.0539899 0.0517602 0.0533195 0.0540164 0.0517234 0.0540641 0.0516125 0.0533956 0.0538983 0.0540905 0.0517587 0.0534032 0.0539597 0.0540645 0.0518737 0.0536643 0.0538222 0.0541376 0.0537726 0.0518288 0.0539139 0.0537033 0.0540298 0.0541174 0.0520314 0.0536052 0.0539761 0.0541104 0.0519998 0.0536244 0.0539399 0.0541023 0.0537518 0.0520095 0.0539562 0.0540718 0.0539244 0.0538517 0.0518938 0.0540471 0.053802 0.0538461 0.0519418 0.05405 0.0538857 0.0541176 0.052087 0.0538507 0.0540204 0.0540869 0.0516679 0.0538797 0.0540734 0.0538325 0.0518051 0.053789 0.0517702 0.054161 0.0539942 0.0537595 0.0519086 0.0541321 0.0539179 0.0518489 0.0541448 0.0536082 0.0537421 0.0517475 0.0535209 0.0520195 0.054194 0.0541121 0.0537199 0.0519254 0.0541716 0.0536989 0.0540681 0.0520001 0.0541355 0.053513 0.0540512 0.0541057 0.0521058 0.0536024 0.0539532 0.0541237 0.052167 0.0538246 0.0541863 0.0539063 0.0520933 0.0538991 0.0541992 0.0540018 0.0521993 0.054163 0.0538042 0.053963 0.0522282 0.0541531 0.053987 0.0537068 0.0521454 0.054009 0.0538815 0.0522089 0.0539068 0.0539037 0.054042 0.0538458 0.0523083 0.0539642 0.0538182 0.0538133 0.0540563 0.0522713 0.0520332 0.0538904 0.0540467 0.0521351 0.0521015 0.054028 0.0538615 0.0519952 0.0522496 0.0539947 0.052193 0.0522077 0.0538005 0.0539322 0.0520573 0.052356 0.0539552 0.0519435 0.0523777 0.0537983 0.0521124 0.0539042 0.0537772 0.0524707 0.0522256 0.0540083 0.0538086 0.0523015 0.052399 0.0540039 0.0537515 0.0523114 0.0537271 0.0525469 0.0539684 0.0524421 0.0524663 0.0540949 0.0536945 0.0525061 0.0525358 0.0540721 0.053623 0.0522777 0.0540748 0.052272 0.052376 0.0538658 0.0541056 0.0523248 0.0524065 0.0537633 0.0524239 0.0541417 0.0520014 0.0537773 0.0541152 0.052337 0.0518813 0.0536741 0.0540438 0.0523786 0.0520553 0.0537256 0.0540631 0.0524662 0.0536966 0.052149 0.0540207 0.052526 0.0519499 0.0540991 0.0536672 0.0518339 0.0525109 0.0540852 0.0535716 0.0524415 0.0520507 0.0540404 0.053642 0.0525974 0.0522202 0.0536022 0.0542463 0.0523413 0.0526003 0.0523944 0.053499 0.0542184 0.0526713 0.0537007 0.0521794 0.0542136 0.0526024 0.052274 0.0536271 0.0525425 0.0536002 0.0523749 0.0542836 0.0526773 0.0526053 0.0542406 0.0535341 0.0518281 0.052646 0.0542817 0.0519347 0.053522 0.0527218 0.0542267 0.052111 0.0535002 0.0542203 0.052788 0.0535669 0.0519865 0.0541805 0.0519018 0.0525121 0.0534115 0.0542744 0.0525435 0.0520016 0.0535132 0.0542646 0.0526375 0.0521363 0.0542512 0.0534086 0.0527154 0.0520307 0.0543294 0.0534243 0.0528393 0.0520953 0.0543636 0.0523078 0.0543181 0.0529649 0.0533176 0.0522287 0.0528302 0.0543827 0.0523125 0.0540651 0.0529193 0.0544206 0.0522297 0.0524702 0.0539753 0.0524019 0.0526396 0.0544384 0.0523333 0.0525858 0.0539348 0.0544033 0.0520647 0.0524097 0.0540229 0.0543467 0.0519746 0.0525211 0.0543088 0.0539438 0.0522268 0.052526 0.0543082 0.0538659 0.0521373 0.0527618 0.0543754 0.0521076 0.0528514 0.053826 0.0543476 0.0520259 0.0528358 0.0537945 0.0526432 0.0544077 0.0522529 0.0538059 0.0527428 0.0541988 0.0521505 0.0538787 0.054154 0.0522428 0.0527792 0.0537147 0.0541401 0.0517725 0.0523171 0.0542347 0.0539729 0.0518955 0.0541847 0.0523859 0.0539092 0.0519914 0.0542178 0.0523476 0.0539069 0.0541665 0.052063 0.0517853 0.0541215 0.0539792 0.0524986 0.0519133 0.0540723 0.0524291 0.0540078 0.0519037 0.0541837 0.0524157 0.0521162 0.0538908 0.054098 0.0524 0.0522486 0.0538312 0.0541295 0.0520318 0.0538257 0.0525004 0.054144 0.0537385 0.0520479 0.0524911 0.0542882 0.0537285 0.0521735 0.0524831 0.0543207 0.0538162 0.0525658 0.0521552 0.0542672 0.0525803 0.0536492 0.0516294 0.0543806 0.0525849 0.0516884 0.0536719 0.0517695 0.0543492 0.0527236 0.0537518 0.0517558 0.0542937 0.0526457 0.0536638 0.051868 0.05426 0.0526493 0.0542409 0.0516448 0.0526591 0.0537415 0.0515591 0.0527452 0.0541888 0.0535775 0.0517663 0.0525617 0.0542025 0.0519846 0.0537146 0.0524769 0.0520517 0.0543146 0.0536448 0.0526441 0.0520788 0.0536007 0.0525853 0.0542534 0.0519512 0.0535312 0.0526566 0.0538681 0.0518767 0.053452 0.05381 0.0519363 0.052734 0.0534786 0.0538282 0.0523066 0.0527331 0.0533634 0.0539375 0.052405 0.0533723 0.0528843 0.0539166 0.0524661 0.0532836 0.0527986 0.0538834 0.0522615 0.0538519 0.0536382 0.0523618 0.0528125 0.0537853 0.0535729 0.0525572 0.052712 0.0537628 0.0535312 0.0527041 0.0527842 0.0537095 0.0535704 0.0526523 0.0536726 0.0534681 0.0528691 0.0524671 0.0538134 0.0535497 0.0524131 0.0537469 0.0525969 0.0534403 0.0539608 0.0526087 0.0533674 0.0527178 0.0525612 0.0539813 0.0526843 0.0532537 0.0539137 0.0521325 0.0534679 0.0526085 0.0539296 0.0521884 0.0533828 0.0526792 0.0540053 0.0522704 0.0527536 0.0532856 0.0539492 0.0523458 0.052798 0.0539751 0.0539302 0.0520454 0.0538785 0.0528753 0.0539891 0.0538366 0.0521292 0.0528164 0.0538231 0.0537707 0.0522019 0.0528965 0.053896 0.053956 0.0523027 0.0528307 0.053799 0.0537924 0.0529021 0.0523924 0.053862 0.0538847 0.0536318 0.0524716 0.053778 0.0529596 0.0537314 0.0536089 0.0525194 0.0529946 0.0536547 0.05354 0.0527548 0.0522593 0.0537236 0.0536978 0.0526783 0.0535715 0.0536682 0.0524097 0.0528339 0.0536284 0.0536025 0.0527467 0.0523484 0.0539102 0.0534664 0.0527528 0.0538513 0.0530467 0.0528273 0.053331 0.0537762 0.0531389 0.052823 0.0531435 0.053375 0.0538985 0.052906 0.0535382 0.0529731 0.052982 0.0535146 0.0538247 0.0530713 0.0529078 0.0534377 0.0531281 0.0537274 0.0529806 0.0534224 0.0536909 0.0532939 0.0537353 0.053058 0.0536102 0.053216 0.0536845 0.0529837 0.0535334 0.0533178 0.0537559 0.0530807 0.0533792 0.0536588 0.0538189 0.0532125 0.0535698 0.0530446 0.0537216 0.0535149 0.0530964 0.0535768 0.0533229 0.0531399 0.0536515 0.0535857 0.0529376 0.053601 0.0534919 0.0530194 0.0531085 0.0534956 0.0534756 0.0528929 0.0536801 0.0534147 0.0531904 0.0529488 0.0534164 0.0535995 0.0530118 0.0531946 0.0533693 0.0535675 0.0531049 0.053264 0.0532734 0.0532298 0.0535157 0.0533395 0.0532117 0.053234 0.0533299 0.0540273 0.0531027 0.0532451 0.0533935 0.0540551 0.053022 0.0533194 0.0532222 0.0540027 0.0531411 0.0534424 0.0532826 0.054082 0.0534842 0.0533255 0.0540252 0.0530624 0.053573 0.0533877 0.053973 0.0531702 0.0535959 0.0539179 0.0533748 0.0532097 0.0534558 0.0538812 0.0531289 0.0534712 0.0534847 0.0539363 0.0533176 0.0535635 0.0533766 0.0539933 0.053275 0.0539509 0.0533274 0.0537609 0.0532228 0.0538975 0.0531481 0.053314 0.0537098 0.0532395 0.0541321 0.0533982 0.0538485 0.0532303 0.0540543 0.0533688 0.0532325 0.0536606 0.0541122 0.0534542 0.0536806 0.0541708 0.0531186 0.0537699 0.0535115 0.0532637 0.0542311 0.0527878 0.0537734 0.0541301 0.0528756 0.0530638 0.0533567 0.054066 0.0528969 0.0534593 0.0540151 0.0531575 0.0534088 0.0528171 0.0539586 0.0531845 0.0533441 0.0529237 0.0540261 0.0532715 0.0531129 0.0530241 0.0540883 0.0533794 0.0529668 0.0530773 0.053583 0.0529697 0.0540405 0.0529762 0.0530425 0.0536953 0.053774 0.0531458 0.0528595 0.0536277 0.053841 0.0529283 0.0535215 0.053051 0.053786 0.052947 0.0535493 0.05311 0.0537339 0.0530244 0.0538484 0.0531941 0.0535938 0.0528432 0.0538451 0.0531363 0.0527311 0.0537829 0.0531998 0.0529014 0.0528107 0.0530001 0.0536526 0.053101 0.0528745 0.0537279 0.052965 0.0531502 0.0526191 0.0535996 0.053209 0.0528055 0.0529583 0.0536803 0.0527259 0.0530755 0.0530674 0.0537314 0.0529732 0.0529906 0.0536577 0.0530572 0.0530435 0.0529933 0.0538895 0.053082 0.0530842 0.0528539 0.0539008 0.052881 0.0531775 0.0527491 0.0538285 0.0529183 0.053243 0.0529154 0.0539631 0.0531024 0.0531395 0.0527989 0.0529703 0.053931 0.0532177 0.0538651 0.0527536 0.0526425 0.0532865 0.0537686 0.0525547 0.0527027 0.0533264 0.0536764 0.0527396 0.0526149 0.053196 0.0527649 0.0537293 0.0533706 0.0525177 0.053802 0.0524784 0.0532807 0.0527443 0.0538359 0.0532327 0.052638 0.0526537 0.0533188 0.0525806 0.0537523 0.0532935 0.0525585 0.0528537 0.0528671 0.053422 0.0530128 0.0524368 0.0528748 0.0534041 0.0527943 0.0528847 0.0523864 0.052739 0.0527332 0.05230