# vtk DataFile Version 3.0
vtk output
ASCII
DATASET UNSTRUCTURED_GRID
POINTS 22815 float
0 0 0
1 0 0
1 1 0
0 1 0
0 0 0
0 0 0
1 0 0
1 1 0
0 1 0
0 0 0
0 0 0
1 0 0
1 1 0
0 1 0
0 0 0
0 0 0
1 0 0
1 1 0
0 1 0
0 0 0
0 0 0
1 0 0
1 1 0
0 1 0
0 0 0
0 0 0
1 0 0
1 1 0
0 1 0
0 0 0
0 0 0
1 0 0
1 1 0
0 1 0
0 0 0
0 0 0
1 0 0
1 1 0
0 1 0
0 0 0
0.908948 0 0
1 0 0
1 0.209038 0
0.908948 0 0
0 0 0
1 0 0
1 1 0
0 1 0
0 0 0
0 0 0
1 0 0
1 1 0
0 1 0
0 0 0
0 0 0
1 0 0
1 1 0
0 1 0
0 0 0
0 0 0
1 0 0
1 1 0
0 1 0
0 0 0
0.683349 0 0
1 0 0
1 0.549656 0
0.683349 0 0
0 0 0
1 0 0
1 1 0
0 1 0
0 0 0
0 0 0
1 0 0
1 1 0
0 1 0
0 0 0
0 0 0
1 0 0
1 1 0
0 1 0
0 0 0
0 0 0
1 0 0
1 1 0
0 1 0
0 0 0
0.385932 0 0
1 0 0
1 0.740572 0
0.385932 0 0
0 0 0
1 0 0
1 1 0
0 1 0
0 0 0
0 0 0
1 0 0
1 1 0
0 1 0
0 0 0
0 0 0
1 0 0
1 1 0
0 1 0
0 0 0
0.715707 0 0
1 0 0
1 0.528354 0
0.715707 0 0
0.79176 0 0
1 0 0
1 1 0
0.360298 1 0
0.79176 0 0
0.938349 0 0
1 0 0
1 1 0
0.574923 1 0
0.938349 0 0
0.783332 0 0
1 0 0
1 0.150483 0
0.783332 0 0
0.0465288 0 0
1 0 0
1 1 0
0.69347 1 0
0.0678519 0.0331395 0
0.0465288 0 0
0.947721 0 0
1 0 0
1 1 0
0.562015 1 0
0.947721 0 0
0.580993 0 0
1 0 0
1 0.232614 0
0.580993 0 0
0.984076 0 0
1 0 0
1 1 0
0.602099 1 0
0.732662 0.641173 0
0.984076 0 0
0.578704 0 0
1 0 0
1 0.601221 0
0.578704 0 0
0 0 0
0.152705 0 0
0 0.0678446 0
0 0 0
0.760073 0 0
1 0 0
1 0.487962 0
0.760073 0 0
0.224116 0 0
1 0 0
1 0.750814 0
0.224116 0 0
0.959258 0.226213 0
1 0.136543 0
1 1 0
0.630987 1 0
0.959258 0.226213 0
0 0.855697 0
0.205219 0.9636 0
0.269875 1 0
0 1 0
0 0.855697 0
0.626873 0 0
1 0 0
1 0.628957 0
0.626873 0 0
0.904825 0 0
1 0 0
1 0.0549749 0
0.904825 0 0
0 0.786811 0
0.441422 1 0
0 1 0
0 0.786811 0
1 0.156317 0
1 1 0
0.74398 1 0
1 0.156317 0
0 0.866763 0
0.11408 0.908114 0
0.341302 1 0
0 1 0
0 0.866763 0
0 0.599242 0
0.615489 0.979906 0
0.644823 1 0
0 1 0
0 0.599242 0
0.977519 0 0
1 0 0
1 0.00723357 0
0.977519 0 0
1 0.611253 0
1 1 0
0.100941 1 0
1 0.611253 0
0 0.581502 0
0.640532 0.957846 0
0.70541 1 0
0 1 0
0 0.581502 0
0 0.576919 0
0.628024 0.968864 0
0.673215 1 0
0 1 0
0 0.576919 0
0.381665 0 0
1 0 0
1 0.369062 0
0.381665 0 0
0.994712 0 0
1 0 0
1 0.00878898 0
0.994712 0 0
1 0.348109 0
1 1 0
0.176911 1 0
0.896835 0.425766 0
1 0.348109 0
0.490882 0 0
1 0 0
1 0.23709 0
0.490882 0 0
0 0.611549 0
0.622391 0.973826 0
0.66298 1 0
0 1 0
0 0.611549 0
0 0 0
0.490768 0 0
0.463453 0.0126624 0
0 0.209256 0
0 0 0
0 0.735559 0
0.318092 1 0
0 1 0
0 0.735559 0
0.415457 0 0
1 0 0
1 0.341116 0
0.525883 0.06838 0
0.415457 0 0
0 0.834083 0
0.215902 0.941165 0
0.326614 1 0
0 1 0
0 0.834083 0
0.653528 0 0
1 0 0
1 0.122535 0
0.653528 0 0
0 0.726465 0
0.446088 1 0
0 1 0
0 0.726465 0
0 0 0
0.999855 0 0
0.487249 0.194083 0
0 0.35404 0
0 0 0
0 0.709471 0
0.374236 1 0
0 1 0
0 0.709471 0
0.297744 0.126782 0
0.155121 0 0
1 0 0
1 0.711598 0
0.297744 0.126782 0
0.849571 0 0
1 0 0
1 0.334723 0
0.849571 0 0
0 0.821997 0
0.22288 0.926512 0
0.369004 1 0
0 1 0
0 0.821997 0
0 0.809472 0
0.476452 1 0
0 1 0
0 0.809472 0
0.0184558 0 0
1 0 0
1 0.0834147 0
0.308442 0.303364 0
0.0184558 0 0
0.87244 0 0
1 0 0
1 0.30751 0
0.87244 0 0
0.626405 0 0
1 0 0
1 0.147206 0
0.626405 0 0
0.638021 0 0
1 0 0
1 0.223237 0
0.638021 0 0
0.356572 0 0
1 0 0
1 0.439331 0
0.356572 0 0
0 0.749478 0
0.405065 1 0
0 1 0
0 0.749478 0
1 0.622633 0
1 1 0
0.819524 1 0
1 0.622633 0
0.415847 0 0
1 0 0
1 0.38095 0
0.52051 0.0723435 0
0.415847 0 0
0 0.827851 0
0.439901 1 0
0 1 0
0 0.827851 0
0.538611 0 0
1 0 0
1 0.235207 0
0.538611 0 0
1 0.745764 0
1 1 0
0.851917 1 0
1 0.745764 0
0 0.931673 0
1 0.540019 0
1 1 0
0 1 0
0 0.931673 0
0.740899 0 0
1 0 0
1 0.196755 0
0.847376 0.0850913 0
0.740899 0 0
1 0.824409 0
1 1 0
0.894227 1 0
1 0.824409 0
0 0.857068 0
0.211586 0.950229 0
0.316636 1 0
0 1 0
0 0.857068 0
0 0.87321 0
0.11481 0.907761 0
0.387665 1 0
0 1 0
0 0.87321 0
0.915114 0 0
1 0 0
1 0.0562858 0
0.915114 0 0
1 0.737853 0
1 1 0
0.351602 1 0
0.481559 0.944427 0
1 0.737853 0
0.892045 0 0
1 0 0
1 0.0408517 0
0.892045 0 0
0 0.791137 0
0.567473 1 0
0 1 0
0 0.791137 0
0 0 0
1 0 0
1 1 0
0 1 0
0 0 0
0 0 0
1 0 0
1 1 0
0 1 0
0 0 0
0 0 0
1 0 0
1 1 0
0 1 0
0 0 0
0.830665 0 0
1 0 0
1 0.048802 0
0.867766 0.0115598 0
0.830665 0 0
0 0 0
1 0 0
1 1 0
0 1 0
0 0 0
0 0 0
1 0 0
1 1 0
0 1 0
0 0 0
0.745386 0 0
1 0 0
1 0.207032 0
0.845242 0.0856067 0
0.745386 0 0
0 0 0
1 0 0
1 1 0
0 1 0
0 0 0
0 0 0
1 0 0
1 1 0
0 1 0
0 0 0
0 0 0
1 0 0
1 1 0
0 1 0
0 0 0
0 0 0
1 0 0
1 1 0
0 1 0
0 0 0
0 0 0
1 0 0
1 1 0
0 1 0
0 0 0
0 0 0
1 0 0
1 1 0
0 1 0
0 0 0
0 0 0
1 0 0
1 1 0
0 1 0
0 0 0
0 0 0
1 0 0
1 1 0
0 1 0
0 0 0
0 0 0
1 0 0
1 1 0
0 1 0
0 0 0
0 0 0
1 0 0
1 1 0
0 1 0
0 0 0
0 0 0
1 0 0
1 1 0
0 1 0
0 0 0
0 0 0
1 0 0
1 1 0
0 1 0
0 0 0
0 0 0
1 0 0
1 1 0
0 1 0
0 0 0
0 0 0
0.0491083 0 0
0 0.0622277 0
0 0 0
0 0 0
1 0 0
1 1 0
0 1 0
0 0 0
0 0 0
1 0 0
1 1 0
0 1 0
0 0 0
0 0 0
1 0 0
1 1 0
0 1 0
0 0 0
0 0 0
1 0 0
1 1 0
0 1 0
0 0 0
0 0 0
1 0 0
1 1 0
0 1 0
0 0 0
0 0 0
1 0 0
1 1 0
0 1 0
0 0 0
0 0 0
1 0 0
1 1 0
0 1 0
0 0 0
0 0 0
1 0 0
1 1 0
0 1 0
0 0 0
0 0 0
1 0 0
1 1 0
0 1 0
0 0 0
0.899851 0 0
1 0 0
1 0.0441571 0
0.899851 0 0
0 0 0
1 0 0
1 1 0
0 1 0
0 0 0
0 0 0
1 0 0
1 1 0
0 1 0
0 0 0
0 0 0
1 0 0
1 1 0
0 1 0
0 0 0
0 0 0
1 0 0
1 1 0
0 1 0
0 0 0
0 0 0
1 0 0
1 1 0
0 1 0
0 0 0
0.622943 0 0
1 0 0
1 0.248595 0
0.622943 0 0
0 0 0
1 0 0
1 1 0
0 1 0
0 0 0
0 0 0
1 0 0
1 1 0
0 1 0
0 0 0
0.531763 0 0
1 0 0
1 0.35743 0
0.531763 0 0
0 0 0
1 0 0
1 1 0
0 1 0
0 0 0
0 0 0
1 0 0
1 1 0
0 1 0
0 0 0
0 0 0
1 0 0
1 1 0
0 1 0
0 0 0
0.852106 0 0
1 0 0
1 0.0614188 0
0.852106 0 0
0 0 0
1 0 0
1 1 0
0 1 0
0 0 0
0 0 0
1 0 0
1 1 0
0 1 0
0 0 0
0 0 0
1 0 0
1 1 0
0 1 0
0 0 0
0.682107 0 0
1 0 0
1 0.208514 0
0.682107 0 0
0 0 0
1 0 0
1 1 0
0 1 0
0 0 0
0 0 0
0.0172648 0 0
0.0120974 0.0126755 0
0 0.0409164 0
0 0 0
0 0 0
1 0 0
1 1 0
0 1 0
0 0 0
0 0 0
1 0 0
1 1 0
0 1 0
0 0 0
0.513441 0 0
1 0 0
1 0.266162 0
0.513441 0 0
0 0 0
1 0 0
1 1 0
0 1 0
0 0 0
0 0 0
1 0 0
1 1 0
0 1 0
0 0 0
0 0 0
1 0 0
1 1 0
0 1 0
0 0 0
0 0 0
1 0 0
1 1 0
0 1 0
0 0 0
0 0 0
0.226342 0 0
0 0.386533 0
0 0 0
0.447686 0 0
1 0 0
1 0.349021 0
0.467345 0.013115 0
0.447686 0 0
0 0 0
1 0 0
1 1 0
0 1 0
0 0 0
0 0 0
1 0 0
1 1 0
0 1 0
0 0 0
0 0 0
1 0 0
1 1 0
0 1 0
0 0 0
0 0 0
1 0 0
1 1 0
0 1 0
0 0 0
0.506973 0 0
1 0 0
1 0.29616 0
0.506973 0 0
0 0 0
1 0 0
1 1 0
0 1 0
0 0 0
0 0.763617 0
0.101254 1 0
0 1 0
0 0.763617 0
0 0 0
1 0 0
1 1 0
0 1 0
0 0 0
0 0 0
1 0 0
1 1 0
0 1 0
0 0 0
0.739414 0 0
1 0 0
1 0.122785 0
0.739414 0 0
0 0 0
1 0 0
1 1 0
0 1 0
0 0 0
0 0 0
1 0 0
1 1 0
0 1 0
0 0 0
0.713791 0 0
1 0 0
1 0.154274 0
0.713791 0 0
0 0 0
1 0 0
1 1 0
0 1 0
0 0 0
0 0 0
1 0 0
1 1 0
0 1 0
0 0 0
0 0 0
1 0 0
1 1 0
0 1 0
0 0 0
0 0 0
1 0 0
1 1 0
0 1 0
0 0 0
0.716495 0 0
1 0 0
1 0.142937 0
0.716495 0 0
0 0 0
1 0 0
1 1 0
0 1 0
0 0 0
0 0 0
1 0 0
1 1 0
0 1 0
0 0 0
0 0 0
1 0 0
1 1 0
0 1 0
0 0 0
0 0 0
0.172167 0 0
0 0.325839 0
0 0 0
0 0 0
1 0 0
1 1 0
0 1 0
0 0 0
0 0 0
1 0 0
1 1 0
0 1 0
0 0 0
0.76608 0 0
1 0 0
1 0.190368 0
0.76608 0 0
0 0 0
1 0 0
1 1 0
0 1 0
0 0 0
0 0 0
1 0 0
1 1 0
0 1 0
0 0 0
0 0 0
1 0 0
1 1 0
0 1 0
0 0 0
0.500436 0 0
1 0 0
1 0.318938 0
0.500436 0 0
0 0 0
1 0 0
1 1 0
0 1 0
0 0 0
0 0 0
1 0 0
1 1 0
0 1 0
0 0 0
0 0.556959 0
0.2705 0.95581 0
0.298411 1 0
0 1 0
0 0.556959 0
0 0 0
1 0 0
1 1 0
0 1 0
0 0 0
0.647437 0 0
1 0 0
1 0.154586 0
0.647437 0 0
0 0 0
1 0 0
1 1 0
0 1 0
0 0 0
0 0 0
1 0 0
1 1 0
0 1 0
0 0 0
0 0 0
1 0 0
1 1 0
0 1 0
0 0 0
0 0 0
1 0 0
1 1 0
0 1 0
0 0 0
0.630064 0 0
1 0 0
1 0.173421 0
0.630064 0 0
0 0 0
1 0 0
1 1 0
0 1 0
0 0 0
0 0.719935 0
0.18906 1 0
0 1 0
0 0.719935 0
0 0 0
1 0 0
1 1 0
0 1 0
0 0 0
0 0 0
1 0 0
1 1 0
0 1 0
0 0 0
0 0 0
1 0 0
1 1 0
0 1 0
0 0 0
0 0 0
1 0 0
1 0.0359051 0
0.127746 0.399195 0
0 0.449278 0
0 0 0
0 0 0
1 0 0
1 1 0
0 1 0
0 0 0
0 0 0
1 0 0
1 1 0
0 1 0
0 0 0
0 0 0
1 0 0
1 1 0
0 1 0
0 0 0
0 0 0
1 0 0
1 1 0
0 1 0
0 0 0
0 0 0
1 0 0
1 1 0
0 1 0
0 0 0
0 0 0
1 0 0
1 0.110365 0
0 0.804554 0
0 0 0
0 0 0
1 0 0
1 1 0
0 1 0
0 0 0
0 0 0
1 0 0
1 1 0
0 1 0
0 0 0
0 0 0
1 0 0
1 0.120272 0
0.895747 0.159122 0
0 0.469051 0
0 0 0
0 0 0
1 0 0
1 1 0
0 1 0
0 0 0
0 0 0
1 0 0
1 1 0
0 1 0
0 0 0
0 0 0
1 0 0
1 0.128594 0
0 0.786495 0
0 0 0
0 0 0
1 0 0
1 1 0
0 1 0
0 0 0
0 0 0
1 0 0
1 1 0
0 1 0
0 0 0
0 0 0
1 0 0
1 1 0
0 1 0
0 0 0
0 0 0
1 0 0
1 1 0
0 1 0
0 0 0
0 0.879759 0
0.0834383 1 0
0 1 0
0 0.879759 0
0 0 0
1 0 0
1 0.155073 0
0.584061 0.404373 0
0 0.737086 0
0 0 0
0 0 0
1 0 0
1 1 0
0 1 0
0 0 0
0 0 0
1 0 0
1 1 0
0 1 0
0 0 0
0 0 0
1 0 0
1 1 0
0 1 0
0 0 0
0 0 0
1 0 0
1 1 0
0 1 0
0 0 0
0 0 0
1 0 0
1 1 0
0 1 0
0 0 0
0 0 0
1 0 0
1 1 0
0 1 0
0 0 0
0 0 0
1 0 0
1 1 0
0 1 0
0 0 0
0 0 0
1 0 0
1 1 0
0 1 0
0 0 0
0 0.767885 0
0.18406 1 0
0 1 0
0 0.767885 0
0 0 0
1 0 0
1 1 0
0 1 0
0 0 0
0 0 0
1 0 0
1 0.139777 0
0.69244 0.388861 0
0.429012 0.59023 0
0 0.350512 0
0 0 0
0 0 0
1 0 0
1 1 0
0 1 0
0 0 0
0 0 0
1 0 0
1 1 0
0 1 0
0 0 0
0 0 0
1 0 0
1 1 0
0 1 0
0 0 0
0 0.777611 0
0.139716 1 0
0 1 0
0 0.777611 0
0 0 0
1 0 0
1 1 0
0 1 0
0 0 0
0 0 0
1 0 0
1 1 0
0 1 0
0 0 0
0 0 0
1 0 0
1 1 0
0 1 0
0 0 0
0 0 0
1 0 0
1 0.122489 0
0.862754 0.204057 0
0 0.701845 0
0 0 0
0 0 0
1 0 0
1 1 0
0 1 0
0 0 0
0 0.758981 0
0.05674 0.892477 0
0.0991285 1 0
0 1 0
0 0.758981 0
0 0 0
1 0 0
1 1 0
0 1 0
0 0 0
0 0 0
1 0 0
1 1 0
0 1 0
0 0 0
0 0 0
1 0 0
1 1 0
0 1 0
0 0 0
0 0 0
1 0 0
1 0.157744 0
0.675845 0.388484 0
0 0.84307 0
0 0 0
0 0 0
1 0 0
1 1 0
0 1 0
0 0 0
0 0.711272 0
0.195847 1 0
0 1 0
0 0.711272 0
0 0 0
1 0 0
1 1 0
0 1 0
0 0 0
0 0 0
1 0 0
1 1 0
0 1 0
0 0 0
0 0 0
1 0 0
1 1 0
0 1 0
0 0 0
0.300836 0.125768 0
0.171612 0 0
1 0 0
1 0.763085 0
0.300836 0.125768 0
0 0 0
1 0 0
1 1 0
0 1 0
0 0 0
0 0 0
1 0 0
1 1 0
0 1 0
0 0 0
0 0.730428 0
0.233183 1 0
0 1 0
0 0.730428 0
0 0 0
1 0 0
1 1 0
0 1 0
0 0 0
0 0 0
1 0 0
1 1 0
0 1 0
0 0 0
0 0 0
1 0 0
1 1 0
0 1 0
0 0 0
0 0 0
1 0 0
1 1 0
0 1 0
0 0 0
0 0.614594 0
0.199139 0.976107 0
0.21151 1 0
0 1 0
0 0.614594 0
0 0 0
1 0 0
1 1 0
0 1 0
0 0 0
0.118748 0 0
1 0 0
1 0.403329 0
0.667462 0.570883 0
0.118748 0 0
0 0 0
1 0 0
1 1 0
0 1 0
0 0 0
0 0 0
1 0 0
1 1 0
0 1 0
0 0 0
0 0 0
1 0 0
1 1 0
0 1 0
0 0 0
0 0 0
1 0 0
1 1 0
0 1 0
0 0 0
0.243069 0 0
1 0 0
1 0.659663 0
0.687068 0.391511 0
0.243069 0 0
0 0 0
1 0 0
[...]
CELL_DATA 4544
FIELD FieldData 3
weight 1 4544 float
 1.18441 1.19079 1.19064 1.18439 1.18436 1.18425 1.19086 1.17819 0.840465 1.18413 1.18428 1.19081 1.18428 0.865578 1.19047 1.18454 1.19058 1.18427 0.878217 1.1842 1.19041 1.18454 0.852906 0.953166 0.909299 0.80926 0.996861 0.909431 0.865786 0.902977 0.859289 0.828007 0.834207 0.871999 0.890393 0.852941 0.846925 0.834602 0.88433 0.884463 0.890781 0.896887 0.853098 0.940381 0.92834 0.915504 0.903333 0.772001 0.93449 0.890579 0.902934 0.890539 0.840792 0.909127 0.878117 0.878357 0.890577 0.946922 0.871662 0.934269 0.834418 0.89678 0.896868 0.953003 0.827883 0.884339 0.871664 0.927912 0.871712 0.846706 0.915702 0.884205 0.896845 0.802932 1.02209 0.853313 0.796836 0.878092 0.909492 0.840522 0.940646 0.859549 0.927993 1.19081 1.19668 1.19697 0.878225 1.19665 1.1904 0.846726 1.19702 1.19665 1.19663 1.19046 1.18443 1.19712 1.19694 1.19696 1.19693 1.1971 1.19708 1.19702 1.19042 0.728155 1.19071 1.19706 1.19041 1.19039 1.18462 1.18429 1.18423 1.19069 1.18459 0.871752 1.18423 1.17799 1.18448 1.17803 1.18437 0.877938 1.17833 1.17811 0.890494 1.18423 1.18443 1.19087 0.865399 1.19053 1.19055 1.19049 0.884185 1.1782 0.784429 1.17816 1.18439 0.909566 1.19084 1.1908 1.19669 1.19707 0.809367 0.92201 1.19701 1.19686 1.19687 1.19071 0.915548 1.1907 0.827887 1.19687 1.19045 0.897047 1.18422 1.19682 0.903002 1.19683 1.19052 1.11587 1.19686 0.903274 1.19678 1.19666 1.19053 0.79052 1.11569 1.19676 0.871703 1.09065 1.19669 1.1844 0.921658 1.19081 1.19075 0.859187 1.19672 0.903197 1.18417 1.19065 1.19056 1.19687 0.909586 1.18456 0.815611 1.19042 1.19667 1.15335 0.959423 1.13413 1.15337 1.17166 1.18445 1.15926 0.96584 1.18459 1.18425 0.965436 1.1658 1.17208 0.972063 1.14706 1.19039 1.16541 1.15934 0.790638 0.98428 1.18435 1.17176 1.16573 1.17805 1.16554 1.15918 1.16541 1.15322 0.797119 1.17832 0.978308 1.18422 1.17193 1.18427 0.828284 1.17834 1.17815 1.17167 0.971951 1.1717 0.846867 1.16571 1.17168 1.16546 0.959325 1.16545 0.852996 1.14664 1.14668 1.14065 0.940425 1.15946 1.15297 0.809285 1.14668 1.14048 1.13432 1.13461 0.871761 1.12808 0.946915 1.14045 1.128 1.14663 1.15325 0.934149 1.1344 1.15942 0.840838 0.977884 1.14076 1.1406 1.11543 0.965495 1.1346 1.12791 1.14699 0.884175 0.996631 1.12825 1.12205 1.17817 1.17165 0.890758 1.19074 0.996991 1.17814 1.14071 1.17181 0.903078 0.990718 1.15955 1.16583 1.153 1.15919 1.16541 0.884385 1.19052 1.00333 1.12827 1.15941 0.928273 1.13448 1.14046 0.921901 1.15324 1.12804 1.02187 1.15292 1.1345 1.14683 1.14705 1.00937 1.15947 1.14712 1.15918 0.946803 1.00937 1.15315 1.13458 1.14668 1.12832 1.13421 1.12799 0.977962 1.11541 1.12212 1.12817 1.14045 1.00337 1.12204 0.978247 1.14074 1.13455 0.997086 1.12193 0.96577 1.10942 1.14059 1.12174 1.11563 1.13428 0.984596 0.99047 1.10919 1.12821 1.15932 1.17799 1.01556 0.86544 1.19076 1.02825 1.09055 1.08438 0.909133 1.16564 1.01569 1.14083 0.890645 1.14707 0.940478 1.09678 1.07828 1.05952 1.13453 0.928295 1.1471 1.07212 0.928034 0.946691 1.06544 0.85941 1.19684 1.12173 0.934129 1.10933 0.965748 1.097 1.09083 0.896914 1.09061 1.12834 1.19675 0.896948 1.08461 1.10936 1.12788 1.14673 0.953365 1.14038 1.16559 1.1407 1.15917 0.97833 0.953255 1.12186 0.859223 1.09666 1.09051 0.990516 1.11539 1.10295 0.940854 1.09672 0.997065 1.10333 0.940831 1.13423 0.884257 0.953258 1.11546 0.934521 1.10293 1.12794 0.940532 0.953043 0.865757 1.10918 0.88436 1.0843 0.971849 0.871942 1.09039 0.947077 0.971786 1.10939 1.00948 0.953163 0.85931 1.08422 1.04049 1.05335 0.865482 1.05931 0.972058 1.02828 1.07834 0.871636 1.03446 0.978243 1.07823 0.865575 1.0845 1.04689 0.978139 1.08447 0.903129 1.04055 1.02206 1.02198 1.07163 1.08428 0.871792 1.00337 1.00934 0.878109 1.00926 1.00962 1.02794 0.903123 1.01572 1.07801 0.88445 1.02837 1.03458 0.959413 1.03446 0.896841 1.09705 1.1095 0.821989 0.984323 1.0656 0.921689 1.09685 1.10334 1.08452 0.877935 1.07835 0.965717 1.07168 1.05933 1.06562 1.07209 0.803344 1.04709 0.996746 1.05944 1.00922 1.07197 1.04676 0.990496 0.796921 1.07798 1.06561 1.05914 1.05328 0.865841 1.05324 1.02791 1.03449 1.04706 1.13459 0.834275 1.13444 1.15317 1.11551 1.12166 0.859609 1.14063 1.12791 1.12186 1.11573 1.10933 1.10305 0.859236 1.12198 1.10944 1.12164 1.09693 1.11587 1.0783 1.12185 1.11538 1.10295 1.09038 1.09689 1.07188 1.06586 1.10327 1.11545 1.11572 1.09062 1.10915 1.12819 1.1219 1.09066 0.815535 0.89053 1.10333 0.878223 1.08439 1.0967 1.10301 0.897109 1.07822 1.09067 1.0842 0.909501 0.834209 1.09062 1.07797 1.09682 0.915547 1.0907 1.08428 1.07194 0.884405 0.840817 1.05953 0.865503 1.06555 0.827925 1.10916 1.0782 1.07176 1.08457 1.07192 0.840706 1.09681 1.05942 1.06567 0.890446 1.07828 1.05916 1.0533 0.903339 0.934404 1.05958 1.04044 1.05301 0.890571 1.0406 1.04693 0.909342 1.04688 0.928249 1.05321 1.04046 1.05915 0.878219 1.03424 0.934244 1.02193 0.965741 1.02798 0.940601 1.08443 1.07179 1.05334 0.98416 1.06556 1.06561 1.08421 0.927998 0.946872 1.05947 1.06553 1.00317 1.04039 0.88431 1.0529 0.922055 0.959576 1.0468 0.8971 0.872027 1.04687 0.878292 0.952916 1.0346 0.915527 1.03448 0.959208 0.99083 0.884504 1.02169 1.01558 0.878276 0.965813 0.928341 0.953007 1.02834 0.940613 0.996856 1.04063 0.915603 1.0094 0.953258 1.0343 0.946983 1.02834 0.959413 1.02203 1.04712 0.921716 1.03427 1.12211 1.1157 1.09059 1.10937 1.10334 1.10957 0.915869 1.09709 1.01574 1.07211 0.928223 1.08417 1.09671 1.06539 0.946926 1.02831 1.12179 1.05292 1.10939 1.04065 1.10326 1.04075 1.12188 1.03455 0.934363 1.10307 1.09676 1.1154 1.05937 1.10289 1.05947 1.08425 1.0904 1.06568 0.928214 1.10941 1.09043 1.07194 1.02168 1.07791 1.02808 1.06577 0.959551 1.02811 1.07187 1.05333 1.04686 1.02827 1.01561 0.997065 0.977937 1.04696 1.00925 0.965581 1.04697 1.05309 1.05957 0.953079 1.06564 1.08423 1.04667 0.997105 1.02798 1.04705 1.07209 0.984251 1.02201 1.08448 0.971909 1.0967 1.05933 1.08442 1.06547 0.99057 1.09056 1.04087 0.959197 1.10302 1.05913 1.10295 0.934402 1.1093 1.13413 1.04042 1.12184 1.04691 0.952929 1.12201 1.11579 0.940618 1.05933 1.0906 0.853031 0.965746 1.09666 0.865551 1.08446 0.978254 1.00323 1.09061 0.959159 1.09694 1.10332 1.0406 1.11567 1.11553 0.921831 1.10949 0.984301 1.11566 1.11541 1.03461 0.903108 1.01577 0.996833 0.890784 1.1219 1.02192 1.09702 1.11586 0.934332 1.10915 0.92201 1.03444 1.11579 0.853221 1.10916 0.915745 1.09674 1.09062 1.00952 1.09692 0.853271 0.921643 1.1029 1.09669 1.0033 0.928153 1.10922 1.10318 1.04076 1.10328 0.884461 1.07821 0.87818 1.11553 0.87189 1.05302 1.10303 0.865755 1.09664 1.10934 1.05918 0.902945 1.10336 0.871924 1.09076 1.09695 1.05917 0.909609 1.08434 0.859139 1.06587 0.896825 1.07821 0.884398 1.07791 0.946717 1.07792 1.02795 1.06553 0.93423 1.08449 1.0032 0.940441 1.05915 1.04685 0.953158 1.04055 1.06562 0.947062 1.04668 1.03458 0.928144 0.85962 1.02171 0.915604 1.04058 0.865678 1.00937 1.05302 0.940721 0.878318 1.01568 0.940855 1.02792 0.872058 0.928188 0.871858 1.02799 0.928339 1.07835 0.890538 1.09058 1.03454 1.06565 0.896972 1.08427 1.07823 0.903218 1.08416 1.02788 1.03439 1.05296 0.872051 1.05936 1.04059 1.05326 1.06564 0.878368 1.04044 1.08444 1.02791 1.07164 0.890874 1.09701 1.03431 1.06576 1.05921 1.04688 1.07809 0.884138 1.09066 1.10294 1.02803 1.02824 1.1155 0.902928 1.10947 1.1031 1.01573 1.10916 0.915786 1.10958 1.09685 1.0221 1.02192 1.1032 0.896837 1.08433 1.0971 1.01578 1.03441 1.09073 1.09704 1.00304 1.10306 0.921784 1.09052 1.0407 1.08434 1.02195 1.09055 1.10294 0.928079 1.0404 1.06543 0.978039 1.05931 0.928293 1.06572 1.06545 1.0719 0.972034 0.947033 1.05325 1.05954 0.890852 0.90945 0.940848 1.04683 0.990428 1.07169 0.896899 1.06557 1.07181 0.965851 0.897078 1.06539 0.902904 1.03456 0.91575 0.921653 1.02803 0.934562 0.965391 1.04703 0.915539 0.834416 0.922087 1.03413 0.934189 0.846662 0.953261 0.897083 1.04073 0.940632 1.01546 0.959522 0.859548 0.853226 1.02211 1.00326 0.95931 0.903001 1.02196 0.884338 1.02797 0.95293 0.853192 1.04059 0.878342 0.921762 0.85914 1.05956 1.00922 0.859433 1.06568 0.89087 0.947096 0.884606 1.05321 1.07185 0.909209 0.959526 1.05939 0.865709 1.07835 0.86566 0.890835 1.04067 0.903318 0.94072 1.02799 0.884377 0.896752 1.07163 0.915676 0.909304 0.909522 1.05326 0.902963 0.903024 0.884264 1.05337 0.859204 1.08449 0.909232 1.09047 0.947074 1.07797 0.890381 0.871628 1.09663 0.971878 0.915715 1.11575 1.10318 0.978001 0.890862 0.871695 1.07796 1.07815 1.0905 1.01549 0.865815 1.09684 0.878211 0.990821 1.10956 1.10336 1.10934 0.984157 1.12167 0.84079 0.896891 1.11571 1.1281 1.00962 1.1158 0.915845 1.12173 1.11543 1.09695 1.10932 1.1221 1.12824 1.11571 0.803331 0.921706 0.821695 0.915823 0.859572 0.921759 0.840384 1.08418 0.921731 0.928327 1.08447 1.0968 1.09054 0.80947 0.940474 1.09696 0.934245 1.08446 1.07808 0.922028 0.940789 0.809143 1.05949 1.09044 1.08435 0.909263 0.946768 1.08442 0.94706 1.07796 0.927894 0.728 0.934162 1.10302 1.10313 0.940412 1.11562 1.10933 0.965494 1.11543 0.915481 1.10943 1.10326 0.990592 1.09068 1.09674 1.10918 0.959135 0.977943 1.10337 0.934318 0.971753 0.947003 1.00927 0.965453 0.87794 0.971846 0.847093 0.953183 0.971765 0.978124 0.85299 0.978282 0.947092 0.828358 0.965789 0.87833 0.815454 0.977954 0.978223 0.965721 0.734447 0.984156 0.984465 0.990794 1.00318 0.996965 1.00336 0.871893 0.990456 1.01541 0.927961 0.97175 0.903058 0.947123 0.996728 0.903007 0.978015 0.909581 0.940694 0.946634 0.921941 0.972048 0.959596 0.934516 0.965721 0.896891 0.984405 0.897001 0.871926 0.89064 0.928209 0.884549 1.01567 0.878104 0.896801 0.984554 0.927995 0.965671 0.997049 0.9158 0.940873 0.877927 0.946667 1.02179 0.971928 0.934213 0.884464 1.0092 0.896831 0.953341 0.984416 0.953298 0.959149 0.978055 1.01565 0.940794 0.934524 0.897106 1.01538 0.946886 0.902914 1.0095 0.990598 0.934613 0.990563 0.940638 0.953131 0.978138 0.972118 0.890624 1.02837 0.971828 0.834236 1.03461 0.984194 0.853281 1.03416 1.00325 1.02192 1.00303 0.790665 1.00303 0.990459 0.86569 1.04081 1.03449 1.02171 0.890859 1.05915 0.884159 1.04708 0.778271 1.05306 0.890737 1.02824 1.07197 0.877936 1.04682 1.04704 1.04074 0.896861 1.05914 1.01566 0.877997 1.07185 1.02163 0.747074 1.05956 0.871718 1.02809 0.865451 1.02173 0.877958 1.03432 0.996785 0.847001 0.897082 0.972114 1.0406 0.884524 0.965743 0.890423 0.984352 0.959558 0.87163 0.996707 0.965541 0.821937 0.890835 0.978299 1.05324 0.878337 0.965849 1.05317 0.859213 0.896674 1.04698 0.890599 0.946851 0.896688 1.03449 0.834325 0.953102 0.890564 1.04676 0.947098 0.896779 1.04077 0.959413 0.915476 1.09065 0.953101 1.07837 0.890833 0.934459 1.07797 0.902882 1.01576 1.07195 0.90314 0.977896 1.07182 0.921631 1.08418 0.996989 1.08423 0.909518 1.00924 1.08413 1.09668 1.07813 1.09074 1.07812 0.915813 1.09705 1.03416 0.909434 1.00312 0.909332 0.996857 0.909549 1.09676 1.05332 1.09086 0.921933 0.971842 1.06542 1.0717 1.08439 0.965627 1.07209 0.934443 1.07163 1.07795 0.928098 1.07825 0.98432 1.03428 1.09039 0.915583 0.990676 1.04062 1.05333 0.927918 1.07197 1.08424 0.978246 0.92791 1.06571 1.0596 0.984294 0.921715 1.07807 1.06565 0.934301 1.06581 1.07806 1.07189 1.07822 1.05932 0.959523 1.07208 1.06571 1.08415 1.0783 0.946916 1.05946 1.07164 1.06581 0.940484 1.07199 0.971947 0.915735 1.05303 1.03439 1.06542 0.903197 1.04709 1.02807 1.06582 0.92167 0.99057 1.03428 1.0593 0.9281 0.984276 1.05926 1.05934 0.934564 1.05301 0.909563 1.02205 1.04682 1.07199 1.09058 0.934183 1.07796 1.00935 1.08439 1.04672 1.0969 0.928173 1.09078 1.02209 1.10332 0.915642 1.07826 1.05298 1.02818 1.06567 1.05322 1.01559 0.940574 1.02207 0.946693 1.05313 1.02816 1.09067 0.996858 0.934333 1.02211 1.05915 1.00333 0.94074 0.978144 1.07189 0.934477 1.02212 0.965765 1.02822 0.946754 0.971925 0.98446 1.00934 0.953209 1.03451 1.00303 0.965449 0.996814 0.996692 0.990819 0.946712 1.01587 1.00925 0.965446 1.04075 0.971647 1.04706 1.01555 0.984487 0.953208 1.04038 1.03452 0.959242 0.984429 1.04667 1.05306 0.978213 1.01585 1.04664 1.04062 1.03432 1.00328 1.00947 0.971824 1.02194 1.00955 0.996766 0.990453 1.0221 0.990477 1.00932 1.01555 1.02169 0.978334 1.01574 1.00953 1.06585 0.82801 1.04699 1.00943 1.05308 1.04701 1.05961 1.02173 1.02208 1.05336 0.853002 1.04684 1.03454 1.04038 1.04704 1.06586 1.05305 1.04674 1.03456 1.04665 1.05956 1.04054 0.821744 1.05333 1.04076 1.05304 1.0468 1.02163 1.05325 0.834484 1.05917 1.02832 1.04085 0.840485 1.04081 1.04071 1.05916 0.846993 1.04055 1.06552 1.05309 1.03438 0.890531 1.02826 1.04053 1.01553 1.01581 0.871746 1.01574 1.0408 0.88417 1.02821 1.01551 0.903024 0.997095 1.02826 0.909618 1.01539 0.977935 0.896657 1.03444 1.00324 0.909355 1.02807 1.03448 1.0095 0.859459 1.00954 1.00303 0.877946 1.02171 1.0344 1.02814 1.00923 1.12799 0.89039 1.14062 1.02809 1.12164 1.12811 0.865588 1.13449 0.996981 1.14069 1.14084 1.14699 1.13452 1.01557 1.15296 0.902969 1.04068 1.14706 0.903169 1.12191 1.0405 0.921734 1.13432 1.12796 1.03452 1.12173 1.12834 1.12168 1.14691 1.02789 1.147 1.15299 0.840744 1.14039 1.04671 1.13449 1.1471 1.15921 1.15947 1.01586 1.15953 1.16546 0.87835 1.17178 1.16577 1.00933 1.17803 0.853033 1.16544 1.17184 0.990771 1.17811 1.17182 1.15288 1.00957 1.16547 1.172 1.15945 1.15929 1.00925 1.17164 1.16578 0.734589 1.17194 0.990813 1.17178 1.17805 1.17813 1.04059 1.16553 0.79692 1.11554 0.978354 1.1346 1.10922 1.12817 1.12806 0.990431 1.14061 1.14086 0.840795 1.15313 1.0033 1.14695 1.13457 1.14086 1.03423 1.14056 1.10952 0.834414 1.1217 1.0154 1.12195 0.88439 1.11561 1.10303 1.02799 1.11578 0.915591 1.12801 1.13419 1.02168 1.12184 0.872083 1.11584 1.13454 1.15293 0.915409 1.00331 1.15942 0.909297 1.14697 1.16567 0.93449 1.00924 1.15321 0.940687 1.17797 1.16543 1.15914 1.00333 1.14691 0.884577 1.1782 1.1655 0.996645 1.13457 1.15337 0.89698 1.15952 0.990828 1.14691 1.12812 1.12832 1.15315 0.89671 1.12207 0.978203 0.928107 1.13456 1.15938 0.965558 0.921676 1.15323 0.959501 1.17823 1.19054 0.922027 1.17804 1.17196 0.965434 0.93432 1.18454 0.978321 0.91551 1.18453 0.94681 1.19044 1.18454 0.953341 1.18425 0.953137 1.1906 1.1908 0.884237 1.17803 0.953246 1.19075 1.18436 0.940849 0.95945 1.18418 1.19697 1.1779 0.965705 1.19665 0.871798 1.19069 0.922004 1.18414 1.1904 0.940833 0.91566 0.95298 1.19066 1.19693 0.94665 1.19042 0.959498 1.19711 0.909432 1.19085 1.19057 1.19062 0.959323 0.997017 1.19672 0.96539 1.19056 1.1908 1.19687 0.98433 0.971809 1.19687 1.19697 1.19692 0.959315 0.977965 1.19684 1.19671 1.19686 1.00306 0.971991 1.19063 1.19673 0.971844 1.19677 1.19062 1.19707 0.990865 0.990554 1.19702 0.984322 1.1779 1.19046 0.996646 0.971664 1.18459 1.16555 0.990396 0.934133 1.1845 0.984378 1.1908 1.19664 0.940684 1.19066 1.1843 1.19687 0.978287 1.17202 0.928339 1.17163 0.997106 1.17817 1.14686 0.921996 1.12183 1.00311 1.15294 0.897111 1.14077 1.18454 1.00954 0.921932 1.19045 0.927951 1.19705 1.1719 0.903046 1.15931 1.12837 1.19684 0.853242 0.946668 1.19667 0.940784 1.19705 1.18438 1.19666 1.19044 0.952876 1.19686 1.19706 1.19696 1.19667 0.878288 1.19686 1.19043 0.946756 1.19674 0.884552 1.18414 1.17185 0.965554 1.09676 1.19678 1.19707 0.977988 1.07205 1.19705 1.19692 0.953253 1.09692 1.10296 1.10942 1.09055 1.09055 1.09663 1.10311 0.928238 1.09707 1.10944 0.934166 1.12827 1.11574 1.10952 1.12164 1.0845 0.971648 1.06546 1.05962 1.0655 0.978003 1.07207 0.89081 0.959476 1.09053 1.10309 0.990389 1.09054 1.09709 0.971808 1.07819 1.08419 1.11569 1.122 0.98433 1.14067 1.10961 1.00919 1.10295 1.10957 1.09705 1.14663 1.00329 1.13413 1.09671 1.12208 1.12788 0.996994 1.09693 1.10304 1.0843 1.09057 1.09054 1.01564 1.10319 0.984513 1.11573 1.11551 1.10936 1.0844 0.990742 1.09696 0.984486 1.01574 1.05337 1.003 1.07174 0.99066 1.07816 1.02788 0.972014 1.04682 1.00916 0.965511 1.05932 1.0157 0.959528 1.04084 0.940453 1.08448 0.946719 1.07175 1.06542 0.946809 1.07164 0.921693 1.05962 0.940527 1.05953 0.959615 0.953268 1.04673 0.865607 0.984279 1.03419 0.928048 0.959402 0.877998 0.953267 1.02827 0.896655 0.972003 0.978118 1.02163 0.965609 0.940692 0.972051 0.984263 1.03416 0.990473 0.934574 1.05295 0.984175 0.990438 1.03455 0.946741 0.984536 1.0467 0.9344 0.978291 0.915613 0.88454 1.04677 0.965792 0.909599 0.928132 0.990472 1.02833 0.965838 0.890817 1.0407 0.984324 1.07811 0.996757 1.07796 1.07183 1.07809 0.996827 1.07205 1.00307 1.08434 1.06559 0.871642 1.07817 1.00957 1.09053 1.04677 1.07175 1.00958 1.07166 1.00952 1.04078 1.06578 1.01586 1.05919 1.05315 0.977883 1.02805 1.05305 0.959536 1.03445 0.996673 1.0656 1.05942 1.00312 1.04699 1.0529 1.00324 1.13444 1.14058 0.971696 1.14078 1.10956 1.12171 0.996765 1.11545 0.978147 1.147 1.11549 1.14087 1.0094 1.14064 1.0031 1.13445 1.10955 1.04067 1.11543 1.11546 1.10314 1.1219 1.01566 1.14663 1.13459 1.09702 1.09697 1.00917 1.09042 1.02802 1.02163 1.15316 1.10317 1.17791 1.07209 1.1968 1.05334 1.04061 1.12807 1.0343 1.02195 0.990454 1.16573 1.01572 1.09086 1.00299 1.01558 1.1342 1.06567 1.19708 0.971752 1.10337 1.02795 1.00959 1.19702 0.996958 1.19675 1.02202 1.02827 1.10929 1.00316 1.06585 0.971942 1.10929 1.02196 1.12821 1.05302 0.978102 1.19708 1.03427 0.996705 1.08445 0.990634 1.06587 1.00295 1.08438 1.07195 1.01552 0.97815 1.04671 1.00297 0.984354 1.03431 1.02207 1.05943 1.10944 1.05335 1.01568 1.0783 0.971956 1.04692 1.0592 0.990755 1.05334 1.04046 1.04079 1.0907 1.04046 1.08455 1.00959 1.12825 1.0467 1.06576 1.02791 1.10322 1.04041 1.05914 1.0029 1.07797 1.07818 1.06582 1.02831 0.990727 1.103 1.05336 1.01573 1.05914 0.984197 1.0657 1.02184 1.04684 1.07167 0.99681 1.03449 1.03444 1.0344 1.04051 1.07817 1.03433 0.996922 1.05335 1.0782 1.04672 1.05292 1.00942 1.04703 1.0595 1.09693 1.022 1.10302 0.996771 0.997 1.1221 1.0905 1.04041 1.02794 1.0093 1.04086 1.04082 1.09085 1.03415 1.03413 1.03436 1.10301 1.02198 1.02801 1.02185 1.01566 1.01583 1.04701 1.08415 1.02183 1.03424 1.01558 1.04053 1.01562 1.03448 1.00298 1.04664 1.05933 1.00315 1.0283 0.971928 1.05942 1.00955 1.0406 0.99047 0.959319 1.04691 1.04682 0.953038 1.04679 1.05327 0.96539 1.05918 0.984515 1.05943 0.965441 1.0656 0.971646 1.02798 0.884263 0.978085 1.04076 0.959447 1.05327 0.965504 1.0531 1.04677 0.946706 1.05935 0.997034 1.05938 0.940516 1.06544 1.07202 0.946894 1.07183 0.953173 1.06563 1.06566 0.953278 0.872017 1.07804 1.07822 0.909349 0.934558 0.915407 1.07182 1.09061 1.08454 0.95939 1.07837 1.08432 1.07788 1.0969 1.08456 1.09069 0.890504 1.10315 0.946882 0.903252 0.997103 0.971871 0.928219 1.00295 0.959508 1.00312 0.928323 1.01577 0.928155 1.00922 0.940479 0.921921 1.0221 0.921916 0.915779 1.01584 0.984468 1.00943 0.890399 1.02182 0.978111 1.03416 0.978209 0.884484 1.04067 1.04071 0.990577 1.03455 0.971871 0.878041 1.05917 0.915704 0.984447 1.02793 0.946968 1.05305 0.990501 0.952994 1.06573 0.990642 0.959215 1.05337 0.903124 0.972088 1.04695 0.965434 0.959197 1.06555 0.953346 1.05325 1.05943 0.96578 1.05913 1.07173 1.07788 0.978057 1.01569 1.02201 0.947007 1.04696 0.971717 1.02805 0.947101 1.02809 0.946719 1.04058 0.965759 1.03437 0.959233 0.934612 1.04079 1.05327 1.04676 0.940598 1.0467 1.05301 0.965514 1.03441 0.95962 1.05954 1.06558 1.07195 1.06574 0.927991 1.04687 1.05929 1.05291 1.07181 1.07188 0.940436 1.07804 1.08434 1.07828 1.07212 0.946788 1.0844 1.08415 1.07836 1.02821 1.08433 1.01538 1.08439 0.877929 1.09052 1.09049 1.0906 1.09702 1.01559 0.878234 1.0906 1.10301 1.09056 1.00926 1.09703 0.922036 1.12204 1.10327 1.09671 1.10332 1.00334 0.934231 1.10936 1.11587 1.08454 1.01577 1.09084 1.07817 1.10332 1.09672 1.01566 1.10927 1.09668 1.10324 1.0157 1.09083 0.953245 1.09051 1.09668 1.10302 0.896651 1.1092 1.10951 1.02793 1.10936 1.11577 0.897063 1.11567 1.13429 1.02172 1.12183 0.921928 1.1219 1.12168 0.996728 1.12195 0.909369 1.11557 1.12794 1.1343 0.928262 1.00326 0.909521 0.996923 0.997042 0.996968 0.990526 0.978175 0.903261 0.890467 1.00918 0.88445 1.00297 0.903223 0.971765 0.965426 0.884405 0.990768 0.959477 1.00922 0.977897 0.96584 1.02203 0.971903 1.02802 0.959503 1.0096 0.990732 1.00333 1.02212 1.00309 1.00335 0.940479 1.02207 0.971762 0.990784 0.990843 1.00915 0.959593 0.990541 0.965439 0.99665 0.934496 0.85919 0.997121 0.952979 0.97833 0.8