# vtk DataFile Version 3.0
vtk output
ASCII
DATASET UNSTRUCTURED_GRID
POINTS 44488 float
0.00937371 0 0
0.0206293 0 0
0.0203585 0.0142621 0
0.0195413 0.0144633 0
0.0112386 0.0122255 0
0.00937371 0 0
0 0 0
0.00937371 0 0
0.0112386 0.0122255 0
0.00963287 0.0131133 0
0 0.0132609 0
0 0 0
0.0206293 0 0
0.0286169 0 0
0.0314943 0.0113852 0
0.0242424 0.0152796 0
0.0203585 0.0142621 0
0.0206293 0 0
0.0242424 0.0152796 0
0.0314943 0.0113852 0
0.0337589 0.0119164 0
0.0393805 0.0244481 0
0.0281125 0.0255757 0
0.0242424 0.0152796 0
0.00900106 0.0277878 0
0.00963287 0.0131133 0
0.0112386 0.0122255 0
0.0195413 0.0144633 0
0.0159999 0.0287533 0
0.0122283 0.0298009 0
0.00900106 0.0277878 0
0 0.0132609 0
0.00963287 0.0131133 0
0.00900106 0.0277878 0
0 0.0277587 0
0 0.0132609 0
0.475102 0.37734 0
0.481393 0.384118 0
0.478635 0.392961 0
0.4685 0.391512 0
0.465618 0.381619 0
0.475102 0.37734 0
0 0.0277587 0
0.00900106 0.0277878 0
0.0122283 0.0298009 0
0.00983392 0.0403354 0
0 0.0399617 0
0 0.0277587 0
0.0159999 0.0287533 0
0.0195413 0.0144633 0
0.0203585 0.0142621 0
0.0242424 0.0152796 0
0.0281125 0.0255757 0
0.0245475 0.0313797 0
0.0239143 0.031625 0
0.0159999 0.0287533 0
0.475102 0.37734 0
0.476248 0.372241 0
0.4847 0.368703 0
0.491253 0.375179 0
0.489293 0.382117 0
0.481393 0.384118 0
0.475102 0.37734 0
0.0286169 0 0
0.0439787 0 0
0.0420838 0.00846894 0
0.0337589 0.0119164 0
0.0314943 0.0113852 0
0.0286169 0 0
0.808965 0.444422 0
0.814595 0.440459 0
0.822968 0.449962 0
0.819046 0.457706 0
0.816334 0.458396 0
0.80994 0.454407 0
0.808965 0.444422 0
0.0393805 0.0244481 0
0.0337589 0.0119164 0
0.0420838 0.00846894 0
0.0498596 0.0149133 0
0.0498563 0.0152663 0
0.0395253 0.0245148 0
0.0393805 0.0244481 0
0.831621 0.441283 0
0.837303 0.432216 0
0.847029 0.433445 0
0.84654 0.444439 0
0.843673 0.446414 0
0.831853 0.442535 0
0.831621 0.441283 0
0.0532269 0 0
0.0694888 0 0
0.0660351 0.0108122 0
0.0549897 0.00890033 0
0.0532269 0 0
0.0420838 0.00846894 0
0.0439787 0 0
0.0532269 0 0
0.0549897 0.00890033 0
0.0498596 0.0149133 0
0.0420838 0.00846894 0
0.831853 0.442535 0
0.843673 0.446414 0
0.842162 0.457325 0
0.839854 0.459008 0
0.835823 0.458408 0
0.828988 0.447781 0
0.831853 0.442535 0
0.489293 0.382117 0
0.491253 0.375179 0
0.499647 0.372391 0
0.505018 0.379996 0
0.503642 0.385336 0
0.494857 0.388098 0
0.489293 0.382117 0
0.813411 0.472385 0
0.811732 0.468716 0
0.816334 0.458396 0
0.819046 0.457706 0
0.82696 0.464265 0
0.826998 0.467922 0
0.818953 0.474017 0
0.813411 0.472385 0
0.463363 0.397783 0
0.4685 0.391512 0
0.478635 0.392961 0
0.48031 0.396013 0
0.479267 0.401335 0
0.471087 0.405833 0
0.463913 0.400946 0
0.463363 0.397783 0
0.822968 0.449962 0
0.828988 0.447781 0
0.835823 0.458408 0
0.82696 0.464265 0
0.819046 0.457706 0
0.822968 0.449962 0
0.481393 0.384118 0
0.489293 0.382117 0
0.494857 0.388098 0
0.493221 0.39501 0
0.48031 0.396013 0
0.478635 0.392961 0
0.481393 0.384118 0
0.82696 0.464265 0
0.835823 0.458408 0
0.839854 0.459008 0
0.841997 0.470308 0
0.833675 0.473891 0
0.826998 0.467922 0
0.82696 0.464265 0
0.48031 0.396013 0
0.493221 0.39501 0
0.496511 0.4005 0
0.495938 0.403664 0
0.48658 0.409283 0
0.479267 0.401335 0
0.48031 0.396013 0
0.847029 0.433445 0
0.849984 0.431118 0
0.851177 0.431115 0
0.86018 0.43878 0
0.85821 0.446709 0
0.85687 0.447361 0
0.84654 0.444439 0
0.847029 0.433445 0
0.445591 0.401155 0
0.445935 0.401142 0
0.455374 0.409576 0
0.455463 0.412162 0
0.446513 0.418639 0
0.437922 0.411728 0
0.445591 0.401155 0
0.843673 0.446414 0
0.84654 0.444439 0
0.85687 0.447361 0
0.852914 0.459366 0
0.842162 0.457325 0
0.843673 0.446414 0
0.430065 0.423327 0
0.436259 0.411888 0
0.437922 0.411728 0
0.446513 0.418639 0
0.446415 0.423266 0
0.437055 0.428689 0
0.430065 0.423327 0
0.86018 0.43878 0
0.867546 0.435092 0
0.872079 0.436617 0
0.871409 0.448314 0
0.86608 0.450324 0
0.85821 0.446709 0
0.86018 0.43878 0
0.455374 0.409576 0
0.463913 0.400946 0
0.471087 0.405833 0
0.471122 0.412904 0
0.461505 0.417458 0
0.455463 0.412162 0
0.455374 0.409576 0
0.842162 0.457325 0
0.852914 0.459366 0
0.854031 0.461151 0
0.851592 0.470412 0
0.845986 0.472651 0
0.841997 0.470308 0
0.839854 0.459008 0
0.842162 0.457325 0
0.437055 0.428689 0
0.446415 0.423266 0
0.452498 0.428858 0
0.452303 0.434453 0
0.444157 0.439666 0
0.437326 0.43453 0
0.437055 0.428689 0
0.0498596 0.0149133 0
0.0549897 0.00890033 0
0.0660351 0.0108122 0
0.0668882 0.012513 0
0.0582724 0.0223587 0
0.0556383 0.0217449 0
0.0498563 0.0152663 0
0.0498596 0.0149133 0
0.85687 0.447361 0
0.85821 0.446709 0
0.86608 0.450324 0
0.865763 0.462532 0
0.854031 0.461151 0
0.852914 0.459366 0
0.85687 0.447361 0
0.45307 0.867714 0
0.460727 0.868181 0
0.467543 0.879334 0
0.462736 0.883774 0
0.455151 0.882092 0
0.450597 0.870948 0
0.45307 0.867714 0
0.871409 0.448314 0
0.877779 0.451501 0
0.877725 0.461008 0
0.867256 0.464103 0
0.865763 0.462532 0
0.86608 0.450324 0
0.871409 0.448314 0
0.0245475 0.0313797 0
0.0281125 0.0255757 0
0.0393805 0.0244481 0
0.0395253 0.0245148 0
0.0403964 0.0265096 0
0.0371262 0.0366379 0
0.0333022 0.0373079 0
0.0245475 0.0313797 0
0.446513 0.418639 0
0.455463 0.412162 0
0.461505 0.417458 0
0.461582 0.423941 0
0.452498 0.428858 0
0.446415 0.423266 0
0.446513 0.418639 0
0.865763 0.462532 0
0.867256 0.464103 0
0.866883 0.469641 0
0.859862 0.475241 0
0.851592 0.470412 0
0.854031 0.461151 0
0.865763 0.462532 0
0.447209 0.890172 0
0.455151 0.882092 0
0.462736 0.883774 0
0.463919 0.895059 0
0.453854 0.897031 0
0.447352 0.891844 0
0.447209 0.890172 0
0.0395253 0.0245148 0
0.0498563 0.0152663 0
0.0556383 0.0217449 0
0.0491264 0.0313837 0
0.0403964 0.0265096 0
0.0395253 0.0245148 0
0.452498 0.428858 0
0.461582 0.423941 0
0.467493 0.428716 0
0.467395 0.435418 0
0.459578 0.440101 0
0.452303 0.434453 0
0.452498 0.428858 0
0.813411 0.472385 0
0.818953 0.474017 0
0.823502 0.48434 0
0.821534 0.487683 0
0.812317 0.487217 0
0.807837 0.479669 0
0.813411 0.472385 0
0.443889 0.872777 0
0.450597 0.870948 0
0.455151 0.882092 0
0.447209 0.890172 0
0.439997 0.882348 0
0.443889 0.872777 0
0.0515917 0.0371372 0
0.0491264 0.0313837 0
0.0556383 0.0217449 0
0.0582724 0.0223587 0
0.0635221 0.0293789 0
0.0589331 0.0359832 0
0.0515917 0.0371372 0
0.479267 0.401335 0
0.48658 0.409283 0
0.485939 0.413467 0
0.476641 0.41756 0
0.471122 0.412904 0
0.471087 0.405833 0
0.479267 0.401335 0
0 0.0399617 0
0.00983392 0.0403354 0
0.0115622 0.0420323 0
0.00856741 0.0536893 0
0 0.0533322 0
0 0.0399617 0
0.818953 0.474017 0
0.826998 0.467922 0
0.833675 0.473891 0
0.832745 0.48211 0
0.823502 0.48434 0
0.818953 0.474017 0
0.432144 0.883625 0
0.439997 0.882348 0
0.447209 0.890172 0
0.447352 0.891844 0
0.43793 0.898662 0
0.432973 0.89787 0
0.432144 0.883625 0
0.461505 0.417458 0
0.471122 0.412904 0
0.476641 0.41756 0
0.476288 0.424229 0
0.467493 0.428716 0
0.461582 0.423941 0
0.461505 0.417458 0
0.0159999 0.0287533 0
0.0239143 0.031625 0
0.0193054 0.0425623 0
0.0115622 0.0420323 0
0.00983392 0.0403354 0
0.0122283 0.0298009 0
0.0159999 0.0287533 0
0.837032 0.485657 0
0.832745 0.48211 0
0.833675 0.473891 0
0.841997 0.470308 0
0.845986 0.472651 0
0.845206 0.484076 0
0.837032 0.485657 0
0.447352 0.891844 0
0.453854 0.897031 0
0.45151 0.90754 0
0.443091 0.90871 0
0.43793 0.898662 0
0.447352 0.891844 0
0.0193054 0.0425623 0
0.0239143 0.031625 0
0.0245475 0.0313797 0
0.0333022 0.0373079 0
0.029151 0.0478003 0
0.021112 0.0446756 0
0.0193054 0.0425623 0
0.48658 0.409283 0
0.495938 0.403664 0
0.50329 0.41302 0
0.492472 0.421045 0
0.485939 0.413467 0
0.48658 0.409283 0
0.806828 0.495506 0
0.812317 0.487217 0
0.821534 0.487683 0
0.822974 0.493487 0
0.818031 0.501659 0
0.807256 0.497933 0
0.806828 0.495506 0
0.453854 0.897031 0
0.463919 0.895059 0
0.466087 0.896297 0
0.460933 0.91312 0
0.45691 0.913103 0
0.45151 0.90754 0
0.453854 0.897031 0
0 0.0533322 0
0.00856741 0.0536893 0
0.0120291 0.0574568 0
0.00876336 0.0670016 0
0 0.0661348 0
0 0.0533322 0
0.467493 0.428716 0
0.476288 0.424229 0
0.483318 0.429995 0
0.48341 0.433195 0
0.474561 0.440407 0
0.467395 0.435418 0
0.467493 0.428716 0
0.00856741 0.0536893 0
0.0115622 0.0420323 0
0.0193054 0.0425623 0
0.021112 0.0446756 0
0.0165434 0.0575217 0
0.0120291 0.0574568 0
0.00856741 0.0536893 0
0.835392 0.497602 0
0.834775 0.496474 0
0.837032 0.485657 0
0.845206 0.484076 0
0.846255 0.484893 0
0.849363 0.493456 0
0.846603 0.498258 0
0.835392 0.497602 0
0.462736 0.883774 0
0.467543 0.879334 0
0.473552 0.879287 0
0.477356 0.886749 0
0.469581 0.89644 0
0.466087 0.896297 0
0.463919 0.895059 0
0.462736 0.883774 0
0.483318 0.429995 0
0.492457 0.4227 0
0.499349 0.429484 0
0.497212 0.437333 0
0.490251 0.43929 0
0.48341 0.433195 0
0.483318 0.429995 0
0.00876336 0.0670016 0
0.0120291 0.0574568 0
0.0165434 0.0575217 0
0.0201123 0.0597106 0
0.0211397 0.0695479 0
0.0169556 0.0720703 0
0.0116435 0.0707472 0
0.00876336 0.0670016 0
0.823502 0.48434 0
0.832745 0.48211 0
0.837032 0.485657 0
0.834775 0.496474 0
0.822974 0.493487 0
0.821534 0.487683 0
0.823502 0.48434 0
0.476641 0.41756 0
0.485939 0.413467 0
0.492472 0.421045 0
0.492457 0.4227 0
0.483318 0.429995 0
0.476288 0.424229 0
0.476641 0.41756 0
0.473552 0.879287 0
0.476117 0.87521 0
0.488543 0.873727 0
0.492376 0.877571 0
0.484058 0.888199 0
0.477356 0.886749 0
0.473552 0.879287 0
0.0165434 0.0575217 0
0.021112 0.0446756 0
0.029151 0.0478003 0
0.0307583 0.0500535 0
0.0290561 0.0565774 0
0.0201123 0.0597106 0
0.0165434 0.0575217 0
0.849363 0.493456 0
0.846255 0.484893 0
0.86022 0.481259 0
0.862637 0.484257 0
0.861456 0.494186 0
0.849363 0.493456 0
0.380144 0.454616 0
0.379962 0.449358 0
0.387684 0.44313 0
0.395672 0.447833 0
0.396495 0.451474 0
0.388924 0.459305 0
0.380144 0.454616 0
0.0201123 0.0597106 0
0.0290561 0.0565774 0
0.0339624 0.0629845 0
0.0282581 0.0712028 0
0.0211397 0.0695479 0
0.0201123 0.0597106 0
0.484058 0.888199 0
0.492376 0.877571 0
0.495501 0.877828 0
0.502541 0.887366 0
0.494506 0.894461 0
0.485278 0.890303 0
0.484058 0.888199 0
0.845986 0.472651 0
0.851592 0.470412 0
0.859862 0.475241 0
0.86022 0.481259 0
[...]
CELL_DATA 6400
FIELD FieldData 3
weight 1 6400 float
 0.0523262 0.05223 0.0524037 0.0524916 0.0523562 0.0523029 0.0550426 0.0523172 0.0524134 0.0550502 0.0524929 0.0538884 0.0525516 0.0537315 0.0526674 0.0525738 0.0537286 0.0550496 0.0538146 0.0550264 0.0537793 0.055047 0.0537055 0.055038 0.053646 0.0549959 0.0536442 0.0549706 0.0535478 0.0550124 0.0536206 0.0549585 0.0526854 0.0535645 0.0519327 0.05349 0.0525347 0.0549873 0.0535378 0.0517961 0.0526399 0.054976 0.0538176 0.0518869 0.0527035 0.0550243 0.0523537 0.0537455 0.0517657 0.0550054 0.0524056 0.0536354 0.0516419 0.0525164 0.0550274 0.0537837 0.051611 0.0523968 0.0549894 0.0524526 0.0535741 0.0517902 0.0549927 0.0524818 0.0536731 0.055009 0.0518678 0.0525176 0.0535128 0.0548077 0.0525679 0.0517802 0.0535518 0.0525875 0.0548046 0.0516944 0.0526186 0.0548545 0.053455 0.0516697 0.0548521 0.0527489 0.051464 0.0547612 0.0526108 0.0534754 0.0548073 0.051377 0.0548066 0.05275 0.0534083 0.0512309 0.0548953 0.0526881 0.0513403 0.0535481 0.0527673 0.0549235 0.052838 0.0513271 0.0548556 0.0535298 0.0529127 0.0548465 0.0514601 0.0528741 0.0534188 0.0548855 0.0527619 0.0515785 0.0546977 0.0535522 0.0528223 0.0547504 0.0529076 0.0534725 0.0515308 0.0547581 0.0529441 0.0533582 0.0513122 0.053002 0.0530411 0.0534591 0.054647 0.0513297 0.0531051 0.0532754 0.0546977 0.0530878 0.0533053 0.0514478 0.0530604 0.0547139 0.05317 0.0529865 0.0510109 0.0547966 0.053255 0.0510631 0.0531334 0.0531928 0.0547844 0.0511274 0.0528049 0.0548273 0.0531507 0.0529301 0.0508561 0.0531026 0.0547546 0.0528332 0.0508148 0.0535322 0.0546993 0.0528685 0.0509625 0.0533644 0.054733 0.0530325 0.051001 0.053431 0.0549076 0.0529681 0.0510693 0.0534569 0.0549427 0.0530104 0.0508978 0.0548685 0.0534463 0.0530517 0.0549179 0.0530922 0.0509342 0.0533381 0.0548748 0.0508175 0.0549567 0.0532032 0.0532444 0.0549414 0.0506619 0.0532868 0.0531676 0.0549718 0.0505336 0.0531628 0.0531198 0.0506984 0.0530994 0.0549625 0.0531416 0.0503535 0.0532336 0.0548835 0.0505282 0.0532102 0.054904 0.0532702 0.0503997 0.05244 0.0548887 0.0530581 0.0506435 0.0525066 0.0549254 0.0525721 0.0529563 0.0548255 0.0507419 0.0524763 0.0548098 0.0506017 0.0530721 0.0525806 0.0548557 0.0504754 0.0528428 0.0526592 0.0504382 0.0547365 0.050475 0.0529089 0.0526661 0.0529872 0.0510499 0.052711 0.0547691 0.0530569 0.0511655 0.0528286 0.0547826 0.0528279 0.0510252 0.0548346 0.0527699 0.0529001 0.0508812 0.0527044 0.0548414 0.0527997 0.0509159 0.052799 0.0527247 0.0547937 0.0508651 0.0528742 0.0526373 0.0510263 0.0525387 0.0527144 0.0525052 0.0547968 0.0511085 0.0527717 0.0526203 0.0511378 0.0544436 0.050965 0.0526648 0.0527081 0.0544183 0.0509523 0.0525929 0.0526432 0.0544621 0.0525582 0.0526527 0.0509367 0.0544226 0.0527194 0.0529696 0.0507398 0.0545647 0.0526832 0.0529822 0.0507181 0.0545156 0.0528368 0.0528786 0.0504939 0.0545702 0.052755 0.0506133 0.0529521 0.054518 0.0527699 0.0544245 0.0504856 0.0528165 0.0544532 0.0529293 0.0507697 0.0528826 0.0544055 0.0528952 0.0544423 0.052787 0.050742 0.0528014 0.0526982 0.0505923 0.0545059 0.0525935 0.0504852 0.0528686 0.0545097 0.0526617 0.0505328 0.0545113 0.0529893 0.0527366 0.0505859 0.0546113 0.0525894 0.0529816 0.0525532 0.0546026 0.0529055 0.0546947 0.0534739 0.0545659 0.0529149 0.0546088 0.0533298 0.0530179 0.0547526 0.0530986 0.0533502 0.0546523 0.0547453 0.0529547 0.0533943 0.0546299 0.0530377 0.0546981 0.0546331 0.0534288 0.0530631 0.0545643 0.0546431 0.0532895 0.0531268 0.0545964 0.0546461 0.0531796 0.0545852 0.053205 0.0547086 0.0545533 0.0532468 0.0546232 0.0531628 0.0531109 0.0547279 0.0546145 0.0532925 0.0532145 0.0546578 0.0546009 0.054606 0.0532135 0.0543862 0.0530272 0.0543689 0.0546666 0.0531312 0.0532687 0.0543386 0.0545398 0.0530517 0.0533073 0.0544475 0.0545935 0.0544979 0.0533481 0.0530692 0.0545302 0.0544298 0.0529825 0.0533444 0.0544741 0.0545741 0.0530947 0.0543564 0.0532373 0.0543138 0.0530298 0.0543971 0.0544668 0.0533351 0.0531006 0.0543402 0.0545052 0.0532432 0.0542911 0.0544628 0.0532058 0.0544318 0.054589 0.0532653 0.053151 0.054549 0.0543888 0.0531865 0.0531742 0.054553 0.0544303 0.0530738 0.0544825 0.0532588 0.0545528 0.0545022 0.0545483 0.0529724 0.0533878 0.054516 0.0530959 0.0547205 0.0533785 0.0545801 0.0531155 0.0532411 0.0546129 0.0546686 0.0530077 0.0545766 0.0546656 0.0533049 0.0544964 0.0529264 0.0546609 0.0534035 0.0544757 0.0546055 0.0530083 0.0544675 0.0533212 0.0546081 0.0545342 0.052894 0.0531675 0.0546036 0.0545127 0.0532935 0.0528364 0.0546135 0.0545618 0.0532269 0.0527466 0.0532806 0.0546175 0.0545047 0.0528461 0.0532271 0.0545345 0.0545385 0.0529566 0.0531618 0.0545433 0.0546741 0.052701 0.0533677 0.0545446 0.0527736 0.0545534 0.0532838 0.0546495 0.0526516 0.0533674 0.0544702 0.0546966 0.0526896 0.0533627 0.0544245 0.0547072 0.0524973 0.0535087 0.054493 0.0546761 0.0534284 0.0525679 0.0545058 0.0546488 0.0534398 0.0525703 0.0546743 0.0544737 0.0535119 0.0526168 0.0544579 0.0534435 0.0546329 0.0524643 0.0547021 0.0544439 0.0533136 0.0546585 0.0529451 0.0543919 0.053219 0.0546872 0.0533579 0.0527743 0.0543898 0.0547419 0.0533604 0.0547441 0.052825 0.0544388 0.054782 0.0532857 0.0533836 0.0534512 0.0535399 0.0534554 0.0534428 0.0535866 0.0535159 0.0535299 0.0536082 0.0536109 0.0528578 0.0535732 0.0534936 0.0544064 0.053622 0.0548113 0.0535605 0.0529019 0.0544029 0.0535843 0.0548214 0.0527017 0.053646 0.0543471 0.0547769 0.0537072 0.0543311 0.0548225 0.0527959 0.0536348 0.0547415 0.054374 0.0537714 0.0526672 0.0547354 0.0544219 0.0538158 0.0547188 0.0525903 0.0537087 0.0547761 0.0544415 0.0525133 0.0538123 0.054814 0.0524355 0.0543779 0.0547715 0.053691 0.0543556 0.052581 0.0537691 0.0543175 0.0548017 0.0525052 0.0537503 0.0546303 0.0523947 0.0542815 0.0538578 0.054622 0.0543106 0.0524625 0.0546049 0.053658 0.0542441 0.0537486 0.0545895 0.0524282 0.0542171 0.0537968 0.0523417 0.0546637 0.0541699 0.0537082 0.0546464 0.0525138 0.0542709 0.0546549 0.0542232 0.0536954 0.0525333 0.0546076 0.0542913 0.0536842 0.0545663 0.0542427 0.0523891 0.0537787 0.0522869 0.0545282 0.0541439 0.0538423 0.0546128 0.0524261 0.0541996 0.0538673 0.0545782 0.0525095 0.0541646 0.0539263 0.0545535 0.0544028 0.0546982 0.0538986 0.0526471 0.0543627 0.0547269 0.052643 0.0540411 0.0543728 0.0546797 0.0539614 0.0543343 0.0547502 0.0527692 0.0533659 0.0543107 0.0542849 0.0547695 0.0528203 0.0534483 0.0543143 0.0547337 0.0526298 0.0534454 0.0543285 0.0546456 0.0527277 0.053438 0.0542425 0.0545916 0.0527241 0.0533551 0.0541712 0.0546989 0.0535332 0.0523214 0.0542451 0.0546945 0.0535395 0.0522397 0.0542708 0.0546496 0.0535446 0.0542123 0.0523734 0.053627 0.0546499 0.0541164 0.0522407 0.0542303 0.0541982 0.0537 0.0521934 0.0542664 0.054136 0.0536298 0.0523726 0.0541914 0.0542216 0.0536313 0.0523513 0.0541468 0.0543506 0.053791 0.0525983 0.0543134 0.0541609 0.0537061 0.0542781 0.0525212 0.0534674 0.0540609 0.0543076 0.0527214 0.0536234 0.054228 0.0540745 0.0524788 0.054137 0.0535395 0.0525406 0.0541144 0.0535404 0.0546062 0.0541622 0.0526664 0.0540869 0.0534733 0.0542538 0.0529462 0.0536479 0.0542152 0.0545483 0.0537167 0.0542038 0.0529092 0.0545406 0.0537041 0.0543788 0.0530425 0.0538167 0.0545408 0.0544271 0.0528521 0.0537512 0.0544889 0.0544063 0.0529316 0.0544833 0.0543322 0.0538319 0.0530202 0.0544663 0.0544544 0.0537819 0.0531516 0.0544615 0.0544299 0.0537808 0.0544413 0.054405 0.0538755 0.0532373 0.0544066 0.0544177 0.0538571 0.054353 0.0532285 0.0537953 0.0542941 0.0543724 0.0539187 0.0542786 0.0530393 0.054482 0.0539318 0.0531263 0.0543972 0.0544066 0.0543421 0.0540211 0.0531201 0.0544179 0.0542831 0.0539939 0.053218 0.0543277 0.0543485 0.0543624 0.0527626 0.0540114 0.0540766 0.0542988 0.0528369 0.0543479 0.0540565 0.0540338 0.0529305 0.0543429 0.0540538 0.0539575 0.0527415 0.0539592 0.0543229 0.0540841 0.0541209 0.0542627 0.0526766 0.0538648 0.0540728 0.0542695 0.0528432 0.0538856 0.0540503 0.0542795 0.0530068 0.0539867 0.0539112 0.0541945 0.0539412 0.0531022 0.0539161 0.0538511 0.0538664 0.0529051 0.0543579 0.0538396 0.0539414 0.0530169 0.0542207 0.0539818 0.0540106 0.0530392 0.0539936 0.0540118 0.054313 0.0538991 0.0531358 0.0540515 0.0543015 0.0542267 0.0521191 0.0541519 0.0540967 0.0520803 0.0542086 0.0541507 0.0522737 0.0542742 0.0541442 0.0522305 0.0542843 0.0541823 0.0520292 0.054225 0.0540671 0.0522166 0.0542253 0.0541058 0.0541214 0.0521588 0.0540798 0.0541444 0.0524158 0.0539817 0.0541422 0.0524993 0.0540919 0.0540105 0.0526427 0.0524606 0.0540785 0.0526024 0.0540235 0.0525702 0.0542037 0.0542407 0.0527666 0.052369 0.0541644 0.0541227 0.0527296 0.052312 0.054137 0.0541634 0.0526741 0.0524183 0.0541648 0.0540655 0.0526135 0.051953 0.0540608 0.052747 0.0545191 0.0520911 0.0540733 0.052073 0.0528169 0.0540611 0.0544959 0.0518789 0.0528728 0.0544595 0.053957 0.0519949 0.0528258 0.0544784 0.0540118 0.0519458 0.0529972 0.0545027 0.0539794 0.052037 0.0545507 0.0529271 0.0544282 0.052325 0.05391 0.0529146 0.0521928 0.0542725 0.0544007 0.0522736 0.0528819 0.0542543 0.0543758 0.0529449 0.0544761 0.0541855 0.0530019 0.054181 0.0526835 0.0524007 0.0544036 0.0541854 0.0526368 0.054441 0.0521917 0.0527051 0.0541914 0.0527678 0.0545811 0.0541172 0.0522034 0.0526523 0.0546015 0.0541101 0.0527213 0.052298 0.0545511 0.0540354 0.052842 0.0528211 0.0541102 0.054526 0.0527745 0.0526104 0.05409 0.052903 0.0546341 0.0528355 0.0525563 0.0541105 0.0545832 0.0530535 0.0526818 0.0544722 0.0540226 0.0529882 0.0527094 0.0544935 0.0540026 0.052832 0.0529172 0.0544249 0.0540231 0.0529123 0.0545287 0.0530057 0.0539358 0.0529914 0.0529784 0.0545099 0.0540334 0.0539529 0.0529408 0.0544435 0.0530749 0.0539492 0.0528023 0.0543252 0.0531737 0.0539374 0.0543162 0.0527767 0.0531597 0.0538443 0.054256 0.0531297 0.0528835 0.0541023 0.054277 0.052497 0.0530774 0.0541115 0.0543613 0.0525632 0.0532288 0.0540232 0.0543899 0.0526486 0.0532746 0.054335 0.0540276 0.0523469 0.0532693 0.054289 0.0540154 0.0524582 0.0542929 0.0534369 0.0539473 0.052449 0.0541915 0.0539552 0.0533661 0.0525558 0.0541297 0.0526996 0.0538908 0.0533505 0.0541294 0.0538448 0.0528505 0.0533309 0.0542305 0.0539004 0.0527163 0.0542406 0.0534222 0.0537865 0.0541882 0.0530765 0.0525603 0.0531325 0.0541589 0.0526451 0.0537069 0.0532842 0.0543777 0.0543349 0.0539377 0.0543424 0.0531898 0.053185 0.052773 0.0532327 0.0538871 0.0533907 0.0544568 0.0538624 0.0534832 0.0534658 0.0543964 0.0538419 0.0533222 0.0543606 0.0537707 0.053364 0.0542725 0.0535309 0.0537935 0.0535489 0.0542485 0.0534329 0.0537305 0.0533162 0.0526642 0.0541931 0.0538401 0.0534377 0.052737 0.054208 0.0537555 0.0534243 0.0527738 0.0543058 0.0536977 0.0528456 0.0536654 0.0536797 0.0542399 0.0527607 0.0537525 0.0548918 0.0526826 0.0536312 0.0536598 0.0528075 0.0536042 0.0548608 0.0528493 0.0541528 0.053545 0.0548606 0.0528757 0.0541089 0.0537205 0.0529536 0.0549217 0.0540763 0.0548902 0.0530434 0.0532 0.0540246 0.0549186 0.0529741 0.053322 0.0548532 0.0541155 0.0529183 0.0548781 0.0533408 0.0540699 0.0530673 0.0548401 0.0534099 0.0527701 0.0540771 0.0548589 0.0532283 0.0526899 0.0539864 0.0549106 0.0532789 0.0528753 0.0548955 0.0540352 0.0533668 0.0548873 0.053948 0.0528051 0.0535015 0.0549423 0.0535598 0.0539703 0.0527783 0.0527088 0.0536506 0.054951 0.0539201 0.0549289 0.0528344 0.0534823 0.0539512 0.0549602 0.0529471 0.0534534 0.0538267 0.0535863 0.0549702 0.0530933 0.0537984 0.0549671 0.0535722 0.053022 0.0549533 0.0538825 0.0549483 0.0538138 0.0530147 0.053906 0.0549223 0.0538629 0.0539079 0.052932 0.0549127 0.0538501 0.054953 0.0539098 0.0529928 0.0549402 0.0537517 0.0537621 0.0537852 0.0549539 0.0528989 0.0538413 0.0537403 0.0549189 0.0530849 0.0538344 0.0540818 0.0531335 0.0548149 0.0540451 0.0548246 0.0540027 0.0530929 0.0540294 0.0547855 0.053278 0.0540017 0.0540327 0.0548568 0.053163 0.0548686 0.0539933 0.0532571 0.0539534 0.0548219 0.053944 0.0532199 0.0547456 0.0539529 0.0539192 0.0533098 0.0547851 0.053974 0.0533659 0.0540041 0.0546985 0.053415 0.0536715 0.0539881 0.0547483 0.0537533 0.0534629 0.0548282 0.0539032 0.0537762 0.0533621 0.0547913 0.0538875 0.0536594 0.054743 0.0535118 0.0538642 0.0536233 0.05478 0.0537252 0.0538225 0.053552 0.0548983 0.0538121 0.0531837 0.0538891 0.0538425 0.053122 0.0538588 0.0538042 0.0532891 0.0539014 0.0537957 0.0531717 0.0538165 0.0532217 0.0537498 0.0537095 0.0537282 0.0532924 0.0538021 0.0539118 0.0533225 0.0537381 0.0531851 0.0534501 0.0536802 0.0533916 0.0530875 0.0535751 0.0534846 0.0532731 0.0536183 0.0534614 0.0530899 0.0536724 0.0530062 0.0533865 0.0537436 0.053238 0.0536525 0.053558 0.0531821 0.0536883 0.0533521 0.0535472 0.0533865 0.0536012 0.0534662 0.0534692 0.0536205 0.0535791 0.0532161 0.0548919 0.053631 0.0535426 0.0533544 0.0548639 0.0536945 0.0535477 0.0529155 0.053653 0.0549291 0.0535111 0.0531115 0.054911 0.0536487 0.0536891 0.0530952 0.0548835 0.0535917 0.0536007 0.0549044 0.053552 0.0528213 0.054848 0.0537841 0.0534838 0.0548189 0.0529933 0.0536983 0.0534831 0.0548028 0.0529457 0.0538633 0.0534695 0.054871 0.0531057 0.053807 0.0548347 0.0533747 0.0537691 0.0531811 0.0548373 0.0537212 0.0533078 0.0533096 0.0549835 0.0538851 0.0532668 0.0536001 0.0532512 0.0530132 0.05499 0.0549966 0.0535486 0.053373 0.0530857 0.0536379 0.054969 0.0534453 0.0531974 0.0550004 0.0536245 0.0533658 0.0534561 0.0549944 0.0536812 0.053343 0.0550098 0.0535479 0.0537314 0.0549689 0.0535737 0.0538122 0.0532437 0.054958 0.0533772 0.0538433 0.0535939 0.0549423 0.0534879 0.0539105 0.0536946 0.0549828 0.0535435 0.0538391 0.0536487 0.0549793 0.0534844 0.0537538 0.053652 0.0549684 0.0535231 0.0539109 0.0550267 0.0534283 0.0538515 0.0538886 0.0550198 0.0535421 0.0539363 0.0537585 0.0550221 0.0535748 0.0539154 0.053672 0.053479 0.055047 0.0539789 0.0536822 0.0534722 0.0540025 0.0550343 0.0537652 0.0533717 0.0550156 0.0540455 0.0534213 0.0533849 0.0550008 0.0539601 0.0534135 0.0533757 0.0549969 0.0540621 0.0535153 0.053292 0.0550135 0.0540237 0.0533199 0.0550264 0.0532776 0.0541043 0.0532132 0.0550163 0.053164 0.0541061 0.0533149 0.0549829 0.0532696 0.0535882 0.0541532 0.0549407 0.0533077 0.0536165 0.054102 0.0532704 0.0549253 0.0533644 0.0531882 0.0549461 0.054153 0.0534563 0.0549288 0.0532104 0.0549213 0.054215 0.0534347 0.0539323 0.0548978 0.0539833 0.0548685 0.0539063 0.054032 0.0535372 0.0548383 0.0538484 0.0540863 0.0535253 0.0549088 0.0540304 0.0538317 0.0548822 0.0518139 0.0548741 0.0539585 0.0518371 0.0538014 0.0540889 0.054842 0.0537578 0.0520542 0.054142 0.0549741 0.0538444 0.0519091 0.054944 0.0541638 0.0516832 0.0537497 0.0549624 0.0517727 0.0542236 0.0537305 0.0518543 0.054158 0.0549975 0.053644 0.052117 0.0549708 0.054234 0.0537186 0.0519922 0.0549116 0.0536233 0.0542068 0.0521349 0.0548818 0.0537166 0.0522371 0.0549389 0.0536064 0.0542945 0.0520254 0.0535188 0.0535631 0.0519846 0.0548724 0.0536335 0.0536205 0.0536225 0.0521436 0.0549068 0.0537036 0.0535376 0.0516159 0.0537035 0.0535448 0.0546785 0.0518242 0.0534335 0.0517248 0.0546208 0.0536269 0.0534269 0.0515541 0.0537111 0.0546263 0.0535224 0.0516441 0.0515304 0.0537805 0.0547201 0.0537464 0.0516942 0.0546733 0.0538463 0.0536457 0.0519046 0.0545696 0.0539111 0.053663 0.0518284 0.0545626 0.053773 0.0535469 0.0519887 0.05384 0.0545055 0.0535495 0.0539124 0.0545971 0.0520086 0.0535758 0.0546536 0.0535827 0.0517397 0.0545362 0.0536346 0.0536635 0.051869 0.0545608 0.0537442 0.0523004 0.0535615 0.0547572 0.0536519 0.052269 0.0547077 0.053513 0.0547205 0.0534331 0.0524434 0.0547611 0.053616 0.0522378 0.0534373 0.0537434 0.0548025 0.0522772 0.0534396 0.0538631 0.0547413 0.0534477 0.052376 0.0537896 0.0547803 0.0533135 0.0525531 0.0539445 0.0546174 0.0533311 0.052503 0.0546694 0.0539651 0.0533267 0.0545772 0.0538147 0.0526789 0.0534292 0.054691 0.0538906 0.0533378 0.0526739 0.0546343 0.0538265 0.0532702 0.0524081 0.0546513 0.0539851 0.0531688 0.0525401 0.0544777 0.0532193 0.0539197 0.0525562 0.0544155 0.0521152 0.0544342 0.0531492 0.0539818 0.0521371 0.0540523 0.0543751 0.0534774 0.0519732 0.054498 0.0541143 0.0535098 0.0543942 0.0539872 0.0520199 0.0534128 0.0544548 0.0539857 0.0521038 0.0533837 0.0542764 0.0541274 0.0521461 0.053301 0.0540593 0.0523052 0.0543045 0.0533575 0.0541897 0.0523716 0.053436 0.0542086 0.0524876 0.0542712 0.05434 0.0533346 0.0522278 0.0542112 0.0533134 0.054326 0.0522626 0.0542897 0.0533257 0.0542556 0.0540311 0.0523896 0.0531987 0.0545199 0.0513765 0.0541779 0.0544636 0.0532056 0.051429 0.054106 0.0545263 0.0532754 0.051642 0.0540395 0.0545884 0.0531727 0.0515073 0.0544924 0.0532189 0.0512747 0.0541088 0.0545532 0.0515416 0.0531264 0.0541856 0.0543628 0.0514061 0.054119 0.0543979 0.0530152 0.0517277 0.0542531 0.054296 0.0531245 0.0518114 0.0542 0.0542991 0.0530835 0.0518735 0.0544285 0.0531649 0.0543748 0.0516103 0.0530715 0.0543329 0.0543254 0.0516652 0.0530316 0.0543709 0.0515127 0.0529511 0.0542602 0.0548131 0.0517034 0.052969 0.0547828 0.0542747 0.0513053 0.0547511 0.052936 0.0511643 0.0548086 0.0543378 0.0532237 0.0512812 0.0547893 0.0538181 0.053121 0.0514105 0.0547077 0.0538551 0.051059 0.0547123 0.0531989 0.0539037 0.0511751 0.0546648 0.0530888 0.0538974 0.0547499 0.0530346 0.051113 0.0547329 0.0539016 0.0529803 0.0512398 0.0546632 0.0539289 0.0530949 0.054692 0.0513854 0.054003 0.0530543 0.0548133 0.0539795 0.0515332 0.0548568 0.0539575 0.053064 0.0515744 0.0540497 0.0548035 0.0529653 0.0540049 0.0514095 0.0547849 0.0540435 0.0529419 0.0548382 0.051479 0.0540709 0.0529621 0.0540991 0.0514098 0.0528438 0.0548496 0.0539736 0.0519261 0.0548075 0.0528417 0.0539976 0.0519065 0.0547584 0.0540652 0.0520409 0.052708 0.0546709 0.0540703 0.0547174 0.0528974 0.0517266 0.0541046 0.0547113 0.0518135 0.0528346 0.0547646 0.0540254 0.0519715 0.0541314 0.0528582 0.0547302 0.0541416 0.0521408 0.0527839 0.0546769 0.0541488 0.0520957 0.0526663 0.0546128 0.0542225 0.0522423 0.0545809 0.0542006 0.0527126 0.0522654 0.0545115 0.0541795 0.0546333 0.0519368 0.0542509 0.0546049 0.0540823 0.0521265 0.054554 0.0542801 0.0515933 0.0545269 0.0539722 0.0541256 0.0541072 0.0544804 0.0517075 0.0541749 0.054042 0.0544314 0.05422 0.0517504 0.0541517 0.0539164 0.0543859 0.0517996 0.0542446 0.0544798 0.0515873 0.0540108 0.0541872 0.0544353 0.0542722 0.0543933 0.0539907 0.0541867 0.0516419 0.054369 0.0542488 0.0538598 0.0519076 0.0542198 0.0546181 0.0539124 0.0520171 0.0543376 0.0545686 0.0542638 0.0545591 0.0520178 0.0539062 0.0543614 0.0546156 0.05182 0.0542881 0.0537714 0.0545585 0.0542995 0.0538181 0.0518884 0.0544636 0.0542368 0.0537775 0.0545116 0.0543189 0.0528278 0.0538446 0.0543239 0.052874 0.0537382 0.054357 0.0527313 0.0543595 0.0539074 0.0543927 0.0528058 0.0538369 0.0543635 0.0529216 0.0544173 0.0538124 0.0544018 0.052991 0.054384 0.0538592 0.0530298 0.0544322 0.0537754 0.0531327 0.0544592 0.0537024 0.052865 0.0544639 0.0537523 0.0529318 0.053725 0.054102 0.0529793 0.0541813 0.0536709 0.0526305 0.0536362 0.0541688 0.0527128 0.0536388 0.0541386 0.052742 0.052585 0.0536697 0.0541391 0.0525074 0.0542456 0.0536815 0.0525918 0.0541901 0.0536019 0.0525294 0.0542228 0.0542598 0.0528394 0.053551 0.0543384 0.0528843 0.0536848 0.0543192 0.0527167 0.053608 0.0542795 0.0527413 0.0535328 0.0542927 0.0527632 0.0534425 0.0543603 0.0543092 0.053115 0.0533701 0.0541883 0.0532313 0.0534781 0.0542468 0.0533021 0.0542432 0.0533546 0.053171 0.0542097 0.0533342 0.0530409 0.0542507 0.0535243 0.0530819 0.0536338 0.0541997 0.053349 0.0534505 0.054298 0.0543436 0.0535528 0.0534384 0.054303 0.0534439 0.0532231 0.054394 0.0533714 0.053235 0.0543677 0.0534133 0.0543428 0.0533519 0.0533123 0.05292 0.0544243 0.053224 0.0530065 0.0543974 0.0533153 0.0531261 0.0543755 0.0528795 0.0544245 0.0531818 0.0529411 0.0544019 0.0532237 0.0543985 0.0532744 0.0543892 0.0544659 0.0537971 0.0544415 0.053116 0.0544619 0.0545156 0.0536921 0.0530813 0.0544719 0.0536334 0.0532149 0.0544055 0.0544434 0.0536604 0.0545159 0.0537973 0.0531362 0.0537552 0.0537597 0.0545031 0.0535915 0.0537136 0.0523612 0.0544892 0.0535585 0.0524921 0.0536494 0.0544844 0.0537049 0.0524296 0.0535648 0.0545525 0.0538142 0.052307 0.0545231 0.0535121 0.05232