# vtk DataFile Version 3.0
vtk output
ASCII
DATASET UNSTRUCTURED_GRID
POINTS 44496 float
0 0 0
0.00409948 0 0
0.0110535 0.0120304 0
0.00829027 0.0154899 0
0 0.0172942 0
0 0 0
0.0141248 0.0268769 0
0.00829027 0.0154899 0
0.0110535 0.0120304 0
0.0175731 0.0111121 0
0.0222038 0.0148111 0
0.0167868 0.0262406 0
0.0141248 0.0268769 0
0.00409948 0 0
0.0202306 0 0
0.0175731 0.0111121 0
0.0110535 0.0120304 0
0.00409948 0 0
0.0235178 0.0148062 0
0.0297646 0.0075191 0
0.0393825 0.0131157 0
0.0402592 0.0155375 0
0.0315605 0.0222524 0
0.0235178 0.0148062 0
0.0202306 0 0
0.0291037 0 0
0.0297646 0.0075191 0
0.0235178 0.0148062 0
0.0222038 0.0148111 0
0.0175731 0.0111121 0
0.0202306 0 0
0.330793 0.921745 0
0.339099 0.924366 0
0.337955 0.937543 0
0.328496 0.939008 0
0.324918 0.926072 0
0.330793 0.921745 0
0.947109 0.2572 0
0.948556 0.256001 0
0.95733 0.256258 0
0.96105 0.264556 0
0.959976 0.26677 0
0.946823 0.267591 0
0.946334 0.267214 0
0.947109 0.2572 0
0.297199 0.44304 0
0.304319 0.440223 0
0.309231 0.443255 0
0.309731 0.452245 0
0.300619 0.4557 0
0.296296 0.452319 0
0.297199 0.44304 0
0 0.0261881 0
0.0121126 0.0292357 0
0.0120026 0.0380328 0
0.0115482 0.038489 0
0 0.0388583 0
0 0.0261881 0
0 0.0172942 0
0.00829027 0.0154899 0
0.0141248 0.0268769 0
0.0121126 0.0292357 0
0 0.0261881 0
0 0.0172942 0
0.344252 0.911505 0
0.348632 0.909495 0
0.356595 0.912612 0
0.356226 0.922957 0
0.350742 0.926338 0
0.342253 0.92278 0
0.344252 0.911505 0
0.937205 0.254747 0
0.947109 0.2572 0
0.946334 0.267214 0
0.9392 0.26909 0
0.932769 0.260165 0
0.937205 0.254747 0
0.2723 0.461029 0
0.273753 0.45551 0
0.284397 0.452218 0
0.287594 0.454699 0
0.287301 0.463717 0
0.280469 0.466912 0
0.2723 0.461029 0
0.0120026 0.0380328 0
0.0121126 0.0292357 0
0.0141248 0.0268769 0
0.0167868 0.0262406 0
0.0246546 0.030933 0
0.0252862 0.0350395 0
0.0208395 0.0395384 0
0.0120026 0.0380328 0
0.356595 0.912612 0
0.361438 0.910031 0
0.370043 0.914823 0
0.369661 0.925206 0
0.364987 0.927179 0
0.356226 0.922957 0
0.356595 0.912612 0
0.287594 0.454699 0
0.296296 0.452319 0
0.300619 0.4557 0
0.300645 0.464451 0
0.292872 0.467102 0
0.287301 0.463717 0
0.287594 0.454699 0
0.0167868 0.0262406 0
0.0222038 0.0148111 0
0.0235178 0.0148062 0
0.0315605 0.0222524 0
0.0314968 0.0233769 0
0.0246546 0.030933 0
0.0167868 0.0262406 0
0.95733 0.256258 0
0.960751 0.251465 0
0.9681 0.251143 0
0.972146 0.258394 0
0.969929 0.262491 0
0.96105 0.264556 0
0.95733 0.256258 0
0.300619 0.4557 0
0.309731 0.452245 0
0.314051 0.455153 0
0.31452 0.463271 0
0.304633 0.467211 0
0.300645 0.464451 0
0.300619 0.4557 0
0.363267 0.900972 0
0.367495 0.898317 0
0.379908 0.907315 0
0.378777 0.90988 0
0.370043 0.914823 0
0.361438 0.910031 0
0.363267 0.900972 0
0.0291037 0 0
0.043979 0 0
0.0393825 0.0131157 0
0.0297646 0.0075191 0
0.0291037 0 0
0.939834 0.282002 0
0.936802 0.273107 0
0.9392 0.26909 0
0.946334 0.267214 0
0.946823 0.267591 0
0.949942 0.278424 0
0.945593 0.28252 0
0.939834 0.282002 0
0.042864 0.0166612 0
0.0402592 0.0155375 0
0.0393825 0.0131157 0
0.043979 0 0
0.0470751 0 0
0.0524116 0.0132492 0
0.042864 0.0166612 0
0.337955 0.937543 0
0.339099 0.924366 0
0.342253 0.92278 0
0.350742 0.926338 0
0.350893 0.937291 0
0.342251 0.940749 0
0.337955 0.937543 0
0.268092 0.46306 0
0.267886 0.475574 0
0.257441 0.476774 0
0.254928 0.468034 0
0.261006 0.461406 0
0.268092 0.46306 0
0.0557195 0.0258281 0
0.0527091 0.0133522 0
0.0575341 0.0118355 0
0.065819 0.0167858 0
0.0639947 0.0247761 0
0.0589182 0.0267001 0
0.0557195 0.0258281 0
0.957992 0.279213 0
0.961534 0.274162 0
0.971515 0.275951 0
0.972846 0.282159 0
0.964533 0.288153 0
0.96061 0.286422 0
0.957992 0.279213 0
0.362474 0.937488 0
0.364987 0.927179 0
0.369661 0.925206 0
0.375384 0.928094 0
0.376748 0.942456 0
0.373352 0.943513 0
0.362474 0.937488 0
0.268092 0.46306 0
0.2723 0.461029 0
0.280469 0.466912 0
0.279287 0.474999 0
0.271004 0.477818 0
0.267886 0.475574 0
0.268092 0.46306 0
0.0470751 0 0
0.0628786 0 0
0.0575341 0.0118355 0
0.0527091 0.0133522 0
0.0524116 0.0132492 0
0.0470751 0 0
0.946823 0.267591 0
0.959976 0.26677 0
0.961534 0.274162 0
0.957992 0.279213 0
0.949942 0.278424 0
0.946823 0.267591 0
0.356226 0.922957 0
0.364987 0.927179 0
0.362474 0.937488 0
0.356398 0.940401 0
0.350893 0.937291 0
0.350742 0.926338 0
0.356226 0.922957 0
0.0246546 0.030933 0
0.0314968 0.0233769 0
0.0390515 0.0315226 0
0.038078 0.0357921 0
0.033347 0.0383889 0
0.0252862 0.0350395 0
0.0246546 0.030933 0
0.256494 0.478443 0
0.257441 0.476774 0
0.267886 0.475574 0
0.271004 0.477818 0
0.270586 0.486404 0
0.262419 0.489532 0
0.2579 0.4865 0
0.256494 0.478443 0
0.96105 0.264556 0
0.969929 0.262491 0
0.974856 0.271613 0
0.971515 0.275951 0
0.961534 0.274162 0
0.959976 0.26677 0
0.96105 0.264556 0
0.0314968 0.0233769 0
0.0315605 0.0222524 0
0.0402592 0.0155375 0
0.042864 0.0166612 0
0.0456632 0.027199 0
0.0390515 0.0315226 0
0.0314968 0.0233769 0
0.250573 0.932094 0
0.258549 0.929304 0
0.264311 0.943597 0
0.258572 0.947598 0
0.249561 0.944321 0
0.250573 0.932094 0
0.969929 0.262491 0
0.972146 0.258394 0
0.980551 0.257188 0
0.983723 0.270928 0
0.974856 0.271613 0
0.969929 0.262491 0
0.038078 0.0357921 0
0.0390515 0.0315226 0
0.0456632 0.027199 0
0.0499413 0.0286055 0
0.0507203 0.0411222 0
0.0461902 0.0423051 0
0.038078 0.0357921 0
0.243969 0.479146 0
0.256494 0.478443 0
0.2579 0.4865 0
0.248409 0.49223 0
0.242012 0.487812 0
0.243969 0.479146 0
0.264311 0.943597 0
0.26814 0.943903 0
0.273192 0.957754 0
0.265982 0.96136 0
0.258613 0.957374 0
0.258572 0.947598 0
0.264311 0.943597 0
0.0456632 0.027199 0
0.042864 0.0166612 0
0.0524116 0.0132492 0
0.0527091 0.0133522 0
0.0557195 0.0258281 0
0.0499413 0.0286055 0
0.0456632 0.027199 0
0.980551 0.257188 0
0.983047 0.254588 0
0.987486 0.254594 0
0.993885 0.263304 0
0.986784 0.271019 0
0.984501 0.271334 0
0.983723 0.270928 0
0.980551 0.257188 0
0.0499413 0.0286055 0
0.0557195 0.0258281 0
0.0589182 0.0267001 0
0.0603426 0.0395679 0
0.0529056 0.0419981 0
0.0507203 0.0411222 0
0.0499413 0.0286055 0
1 0.248526 0
1 0.263187 0
0.993885 0.263304 0
0.987486 0.254594 0
0.993789 0.2484 0
1 0.248526 0
0.274307 0.939774 0
0.280284 0.940858 0
0.283367 0.952302 0
0.275545 0.958219 0
0.273192 0.957754 0
0.26814 0.943903 0
0.274307 0.939774 0
0.248409 0.49223 0
0.2579 0.4865 0
0.262419 0.489532 0
0.262414 0.498734 0
0.253328 0.501979 0
0.249102 0.499444 0
0.248409 0.49223 0
0.972846 0.282159 0
0.971515 0.275951 0
0.974856 0.271613 0
0.983723 0.270928 0
0.984501 0.271334 0
0.982598 0.2843 0
0.979282 0.285416 0
0.972846 0.282159 0
0.0204945 0.0507601 0
0.0117708 0.0518484 0
0.0106079 0.0505159 0
0.0115482 0.038489 0
0.0120026 0.0380328 0
0.0208395 0.0395384 0
0.0226919 0.0479688 0
0.0204945 0.0507601 0
0.292077 0.938043 0
0.295638 0.949833 0
0.290323 0.954203 0
0.283367 0.952302 0
0.280284 0.940858 0
0.285579 0.937158 0
0.292077 0.938043 0
0.271004 0.477818 0
0.279287 0.474999 0
0.284633 0.479421 0
0.283093 0.487862 0
0.27596 0.49023 0
0.270586 0.486404 0
0.271004 0.477818 0
0 0.0388583 0
0.0115482 0.038489 0
0.0106079 0.0505159 0
0 0.0507998 0
0 0.0388583 0
0.986784 0.271019 0
0.993885 0.263304 0
1 0.263187 0
1 0.279514 0
0.998078 0.279487 0
0.986784 0.271019 0
0.292077 0.938043 0
0.298505 0.933073 0
0.301501 0.933199 0
0.308025 0.944269 0
0.302616 0.950613 0
0.295638 0.949833 0
0.292077 0.938043 0
0.0208395 0.0395384 0
0.0252862 0.0350395 0
0.033347 0.0383889 0
0.0329471 0.0487135 0
0.0226919 0.0479688 0
0.0208395 0.0395384 0
0.984501 0.271334 0
0.986784 0.271019 0
0.998078 0.279487 0
0.988037 0.286799 0
0.982598 0.2843 0
0.984501 0.271334 0
0.262419 0.489532 0
0.270586 0.486404 0
0.27596 0.49023 0
0.27487 0.499005 0
0.266497 0.50167 0
0.262414 0.498734 0
0.262419 0.489532 0
0.308371 0.927135 0
0.31437 0.92775 0
0.316976 0.942738 0
0.315862 0.943899 0
0.308025 0.944269 0
0.301501 0.933199 0
0.308371 0.927135 0
0.0204945 0.0507601 0
0.0226919 0.0479688 0
0.0329471 0.0487135 0
0.0336399 0.0495166 0
0.0320871 0.0590008 0
0.0248934 0.0620111 0
0.0240806 0.0616464 0
0.0204945 0.0507601 0
0.935805 0.285803 0
0.939834 0.282002 0
0.945593 0.28252 0
0.950777 0.293704 0
0.950643 0.294252 0
0.938331 0.295638 0
0.935805 0.285803 0
0 0.0507998 0
0.0106079 0.0505159 0
0.0117708 0.0518484 0
0.0106715 0.0614603 0
0 0.0634845 0
0 0.0507998 0
0.287301 0.463717 0
0.292872 0.467102 0
0.292029 0.477231 0
0.284633 0.479421 0
0.279287 0.474999 0
0.280469 0.466912 0
0.287301 0.463717 0
0.275545 0.958219 0
0.283367 0.952302 0
0.290323 0.954203 0
0.292183 0.964718 0
0.282359 0.969405 0
0.281637 0.969181 0
0.275545 0.958219 0
0.945593 0.28252 0
0.949942 0.278424 0
0.957992 0.279213 0
0.96061 0.286422 0
0.950777 0.293704 0
0.945593 0.28252 0
0.0136149 0.0642656 0
0.0106715 0.0614603 0
0.0117708 0.0518484 0
0.0204945 0.0507601 0
0.0240806 0.0616464 0
0.0136149 0.0642656 0
0.295638 0.949833 0
0.302616 0.950613 0
0.305737 0.957998 0
0.297912 0.967507 0
0.292183 0.964718 0
0.290323 0.954203 0
0.295638 0.949833 0
0.950777 0.293704 0
0.96061 0.286422 0
0.964533 0.288153 0
0.966664 0.294094 0
0.961682 0.301908 0
0.951268 0.295705 0
0.950643 0.294252 0
0.950777 0.293704 0
0.296586 0.480133 0
0.30581 0.475655 0
0.309974 0.478267 0
0.310215 0.487867 0
0.301169 0.491158 0
0.297405 0.488947 0
0.296586 0.480133 0
0.302616 0.950613 0
0.308025 0.944269 0
0.315862 0.943899 0
0.318527 0.956392 0
0.313758 0.959873 0
0.305737 0.957998 0
0.302616 0.950613 0
0.0274636 0.0741496 0
0.0248934 0.0620111 0
0.0320871 0.0590008 0
0.0375819 0.0627844 0
0.0366487 0.0706613 0
0.0274636 0.0741496 0
0.939806 0.319678 0
0.93462 0.311777 0
0.938646 0.306487 0
0.94706 0.307478 0
0.949936 0.311181 0
0.944667 0.320902 0
0.939806 0.319678 0
0.292872 0.467102 0
0.300645 0.464451 0
0.304633 0.467211 0
0.30581 0.475655 0
0.296586 0.480133 0
0.292029 0.477231 0
0.292872 0.467102 0
0.258613 0.957374 0
0.265982 0.96136 0
0.265239 0.971168 0
0.258225 0.974398 0
0.252396 0.971047 0
0.251406 0.961313 0
0.258613 0.957374 0
0.033347 0.0383889 0
0.038078 0.0357921 0
0.0461902 0.0423051 0
0.042254 0.0497307 0
[...]
CELL_DATA 6400
FIELD FieldData 3
weight 1 6400 float
 0.0553492 0.0554264 0.0553951 0.0555298 0.0554545 0.0488915 0.0546807 0.0545474 0.0553939 0.0553895 0.0491317 0.0547668 0.0543312 0.0554506 0.0491809 0.0543822 0.0554879 0.0546482 0.0544429 0.0493749 0.0555479 0.054653 0.055608 0.0489243 0.0541451 0.0557267 0.054487 0.0489808 0.0541903 0.0556745 0.0546168 0.0489827 0.0555453 0.0540154 0.0545535 0.0555909 0.048446 0.054531 0.0556384 0.0539296 0.0482793 0.0556591 0.0544846 0.0557108 0.0544721 0.0483802 0.053853 0.054421 0.0554516 0.0484777 0.0540719 0.0554001 0.0543652 0.0485744 0.0555197 0.0543445 0.0539154 0.0487127 0.0555153 0.0545679 0.0553849 0.0542285 0.0482244 0.0545334 0.0554571 0.0483104 0.0544265 0.0541851 0.0484489 0.0555335 0.0544113 0.0542709 0.0480419 0.0555887 0.0544886 0.0479034 0.05411 0.0557357 0.0543998 0.0480744 0.0542917 0.0556587 0.0539619 0.0543185 0.04759 0.0555833 0.0543815 0.0540866 0.0478297 0.0556671 0.0542354 0.047616 0.0542853 0.0557367 0.0540148 0.0480191 0.0541997 0.0557566 0.0546073 0.0482136 0.0558184 0.0542042 0.0559153 0.0479855 0.0545052 0.0540527 0.0558828 0.0477411 0.0541422 0.0546654 0.0557777 0.0476728 0.054346 0.0547534 0.0558172 0.0477535 0.0543929 0.0559031 0.0546858 0.0485461 0.0544465 0.0559682 0.0546565 0.0486623 0.0545489 0.0559921 0.0546237 0.0482702 0.0560633 0.0546575 0.0483757 0.0547076 0.0484767 0.0545073 0.0561964 0.0545624 0.054603 0.0561164 0.0545138 0.0487218 0.0561376 0.0545073 0.0547574 0.0559865 0.0544373 0.0487002 0.0560438 0.0547939 0.0544293 0.0487903 0.0560768 0.0544884 0.0543889 0.0485488 0.0561589 0.0546427 0.0543197 0.0558487 0.0484621 0.0545316 0.0480025 0.0558157 0.0545569 0.0542386 0.0481876 0.0559204 0.0545553 0.0542858 0.0559672 0.0480345 0.0544376 0.0543314 0.0558788 0.0544435 0.0477695 0.0478317 0.0558089 0.0544285 0.0541339 0.0559393 0.0482778 0.0543222 0.0561041 0.0482109 0.0541801 0.0543416 0.0560404 0.0482277 0.0543905 0.0543365 0.0478933 0.0561359 0.0479436 0.0542838 0.0544302 0.0562006 0.0479851 0.0541998 0.0542887 0.0560811 0.0542087 0.0497167 0.056017 0.0542294 0.0541925 0.0499178 0.0561704 0.0541395 0.0499071 0.0554274 0.0543213 0.0540771 0.0553608 0.0495279 0.0553789 0.0543385 0.0555267 0.0496114 0.0554626 0.0541854 0.0553248 0.0555983 0.0497389 0.0543076 0.0554063 0.0555339 0.049942 0.0554716 0.054178 0.0554283 0.0554718 0.0500218 0.0542689 0.0556042 0.0542406 0.0553955 0.0499438 0.0555409 0.0541144 0.055568 0.0496474 0.0557007 0.0540964 0.0497812 0.0556803 0.0556176 0.0540808 0.0496958 0.0556054 0.0539407 0.0555431 0.0498177 0.0540511 0.0557285 0.0556346 0.0538698 0.0495339 0.0494077 0.0492292 0.0493389 0.0491967 0.0491534 0.0494552 0.0494822 0.0492485 0.0554111 0.0494049 0.0557122 0.0552895 0.0553233 0.0554223 0.0553976 0.0552431 0.0552815 0.0553865 0.0553332 0.053836 0.0554948 0.0555719 0.0499338 0.0556357 0.0539643 0.0554418 0.0555284 0.0540784 0.0500827 0.0556197 0.0554481 0.0540656 0.0497928 0.0554592 0.0551215 0.054019 0.0497947 0.0553876 0.0499461 0.0552416 0.0554583 0.0539514 0.0552578 0.0499225 0.0555373 0.0539328 0.0550645 0.0558607 0.0500724 0.0538199 0.0549559 0.0538279 0.0500313 0.0557795 0.0538942 0.0497907 0.0549983 0.0559215 0.0539616 0.0551415 0.0497502 0.0558358 0.053724 0.0551662 0.0557875 0.0537154 0.0498707 0.055296 0.0557534 0.0537539 0.049631 0.05531 0.0558717 0.0535994 0.0495806 0.0550227 0.0559641 0.0536143 0.0496462 0.0560036 0.0551693 0.0494252 0.0550339 0.0560588 0.0492714 0.0550328 0.0557211 0.0561317 0.0494599 0.0548515 0.0559152 0.0556451 0.0496279 0.0548862 0.056052 0.0557688 0.0496132 0.0548814 0.0560921 0.0554573 0.0495125 0.0560012 0.0547314 0.0555831 0.0494025 0.0556954 0.0547851 0.0554785 0.0558289 0.0556112 0.0494146 0.0547851 0.0557283 0.0557992 0.0490499 0.0546938 0.0555833 0.0489438 0.0545649 0.0556919 0.0556533 0.0488143 0.0546603 0.0556861 0.0557171 0.0487212 0.055766 0.0547295 0.0555324 0.0487043 0.0559542 0.0546111 0.0490044 0.0558611 0.0554592 0.0546038 0.0490454 0.0559194 0.0555773 0.0545635 0.0491801 0.055311 0.0560128 0.0489184 0.0544529 0.0553311 0.0558517 0.0486865 0.0553711 0.0544948 0.0558056 0.0487176 0.0551796 0.0543877 0.0551999 0.0559548 0.0545515 0.0484866 0.0552243 0.0544624 0.0562705 0.0482954 0.0562834 0.0554135 0.0544619 0.0484591 0.0562101 0.0480232 0.0553045 0.0543169 0.0564119 0.0480878 0.0563618 0.0552556 0.0543232 0.0481347 0.0563405 0.0544026 0.0563106 0.0551022 0.0484164 0.0484695 0.054246 0.0562348 0.0484639 0.0551936 0.0563977 0.0546586 0.0481562 0.0564369 0.0551537 0.0545097 0.0565059 0.048183 0.0565631 0.0548441 0.0546386 0.0490782 0.0565902 0.0548658 0.054428 0.056476 0.0492473 0.0546877 0.0564888 0.0545198 0.0488954 0.0565475 0.0547178 0.0543819 0.0490141 0.0566143 0.0547399 0.0544596 0.0487641 0.0562852 0.0549059 0.0488092 0.0563639 0.0543843 0.0549075 0.0564075 0.0492391 0.054411 0.0550308 0.0547821 0.0562097 0.0490564 0.0543245 0.0548219 0.0562895 0.054355 0.0491748 0.0547114 0.056258 0.0542629 0.0563278 0.0545745 0.049231 0.0563736 0.0541575 0.0544703 0.0488059 0.0564534 0.0542961 0.0545034 0.0564902 0.0490153 0.0542612 0.0546075 0.0565883 0.0486462 0.0541215 0.0565282 0.0543582 0.0485247 0.0543742 0.0565967 0.0484163 0.0546168 0.0541416 0.0564559 0.0481736 0.0545793 0.054231 0.0564908 0.0482132 0.0546836 0.0542048 0.0545532 0.056532 0.0485333 0.0540673 0.0544517 0.0565706 0.0540386 0.0487644 0.056652 0.0540956 0.0485272 0.0544878 0.05664 0.056743 0.053968 0.0485628 0.0567113 0.0544186 0.0539121 0.0566911 0.0482395 0.05504 0.0566721 0.0539092 0.0482368 0.054922 0.0567447 0.0482487 0.0543446 0.0567872 0.0549143 0.0568004 0.0542775 0.0550696 0.0543906 0.0569016 0.0540617 0.0548004 0.0569039 0.0543182 0.0542119 0.0568419 0.0547822 0.0568037 0.0541656 0.0549688 0.0544245 0.0568533 0.0539889 0.05685 0.0550478 0.0543449 0.0540987 0.0549926 0.0569137 0.0542204 0.0541826 0.0548438 0.0566527 0.0541495 0.0567255 0.0542619 0.0548592 0.0539965 0.0567774 0.0542881 0.0567126 0.0547695 0.0541185 0.0566862 0.0543726 0.0540338 0.0549032 0.0566408 0.0541802 0.0567511 0.0539069 0.054643 0.0568409 0.0541639 0.0546627 0.0538681 0.0567983 0.0542383 0.053965 0.0545101 0.0568928 0.0540229 0.05694 0.0537711 0.0544389 0.0568135 0.0539126 0.0545367 0.0540925 0.0568809 0.0547159 0.0538198 0.0539914 0.0569248 0.0546174 0.0568707 0.0538374 0.0547337 0.0541124 0.0545996 0.0561787 0.0536689 0.0539631 0.0562615 0.0544637 0.0538213 0.0562894 0.0538784 0.0545674 0.0563356 0.0536615 0.0538378 0.0561307 0.0544909 0.0537456 0.0540608 0.0562131 0.0575047 0.0536337 0.056303 0.0540355 0.0574911 0.0562071 0.0535993 0.0541044 0.0575127 0.0563715 0.0574809 0.0539234 0.0534855 0.0564542 0.0575211 0.053981 0.0539535 0.0564128 0.0575146 0.0539176 0.0538075 0.0565386 0.0575187 0.0539822 0.0542692 0.0564021 0.0575085 0.0538438 0.0564939 0.0575069 0.054317 0.0536982 0.0564407 0.0574974 0.0543019 0.0574875 0.0538345 0.056118 0.0574869 0.0541783 0.0536622 0.057475 0.0560564 0.0575075 0.0541215 0.0537792 0.0561605 0.0575015 0.0541792 0.0562534 0.0537499 0.0574882 0.0560809 0.0574969 0.0536387 0.0543068 0.0559803 0.057522 0.0536038 0.0541987 0.0575095 0.056178 0.0535596 0.0540659 0.0575079 0.0563488 0.0536992 0.0562824 0.0541829 0.0575089 0.0535737 0.0563724 0.0575157 0.0540849 0.0535105 0.056209 0.0575098 0.0540252 0.0534055 0.0563018 0.0574985 0.0540126 0.0574988 0.0563967 0.0533311 0.0538997 0.0575031 0.0534138 0.0563293 0.0574949 0.0538492 0.0574913 0.0565775 0.0533643 0.0538941 0.0574912 0.0566449 0.0535173 0.0540515 0.0574801 0.0566159 0.0532549 0.0539667 0.0574838 0.0567169 0.0574575 0.0539493 0.0534441 0.0565314 0.0574607 0.0539194 0.0566835 0.0574314 0.0532192 0.0566372 0.0574305 0.0538055 0.0566106 0.0574738 0.0532869 0.053848 0.0567621 0.0574698 0.0538184 0.0542411 0.0574584 0.0567945 0.057455 0.0537374 0.0542888 0.0574045 0.0568419 0.057413 0.053814 0.0567243 0.0541231 0.0573758 0.0573815 0.0567686 0.0537045 0.0542093 0.0573334 0.0567979 0.0536717 0.0573651 0.0565561 0.0541059 0.0574155 0.0535257 0.0564873 0.0541058 0.0574321 0.0564704 0.0536059 0.05399 0.057438 0.0565762 0.0535488 0.0574052 0.0540579 0.0564131 0.0537758 0.0573821 0.0540839 0.0564947 0.0536782 0.0574798 0.0539641 0.0565715 0.0574725 0.053801 0.0574623 0.053996 0.0566498 0.0534831 0.05745 0.053859 0.0566883 0.0574768 0.0535294 0.0539428 0.0536367 0.0574751 0.0567309 0.0535654 0.0539472 0.0574369 0.0574447 0.0568011 0.0539712 0.053337 0.0574101 0.0538593 0.0532882 0.0566737 0.057438 0.0534463 0.0538188 0.0565842 0.0573804 0.0533863 0.0538237 0.0573782 0.0567494 0.0537309 0.0531706 0.0574242 0.0566776 0.053826 0.0573956 0.0532214 0.0551797 0.053863 0.0573639 0.0536863 0.053116 0.0552573 0.0537274 0.0574947 0.0533748 0.0552978 0.0537198 0.0533147 0.0551284 0.0535607 0.0574939 0.0534162 0.0551225 0.0575053 0.0531954 0.0538523 0.0552725 0.0574883 0.0538411 0.055197 0.0531357 0.0574815 0.0537053 0.053255 0.0574862 0.0553724 0.0537297 0.0574748 0.0537023 0.0537247 0.0554386 0.057478 0.0537551 0.0536041 0.0574754 0.055498 0.0536229 0.0574727 0.0535893 0.0537582 0.0553426 0.0536506 0.0574675 0.0534613 0.0553431 0.0574636 0.0534982 0.053608 0.0554137 0.0574797 0.0534974 0.053478 0.0550552 0.0574573 0.0536762 0.055058 0.0535215 0.0574663 0.0551372 0.0533596 0.0535706 0.0574619 0.0533646 0.0552104 0.0574587 0.0536938 0.0535839 0.0549773 0.0535343 0.0574734 0.0535827 0.0549826 0.0534338 0.0534643 0.0574523 0.055082 0.0533065 0.0552698 0.0534673 0.0574417 0.053353 0.0551726 0.0574482 0.0533993 0.0531415 0.057464 0.0553976 0.0533145 0.0574399 0.0531793 0.0552862 0.0534617 0.0574282 0.053264 0.0550982 0.0533836 0.0574474 0.053414 0.0552141 0.0532214 0.0533132 0.0532273 0.0574099 0.0552491 0.0532924 0.05329 0.0574236 0.0551911 0.0530829 0.0574511 0.0531331 0.0555188 0.0530726 0.0531421 0.0574504 0.0529234 0.0574358 0.0556254 0.0531717 0.0531176 0.0574244 0.0556551 0.0574362 0.054213 0.0536819 0.0557194 0.0574382 0.0536182 0.0542226 0.0554806 0.0574005 0.0536718 0.0541083 0.0555824 0.0574012 0.0535758 0.0574044 0.0555391 0.0539824 0.0573718 0.0534813 0.0573806 0.0557578 0.054103 0.0535025 0.0573457 0.0539925 0.0535742 0.055878 0.0573784 0.0540914 0.053436 0.0557843 0.0573387 0.0533922 0.0556993 0.0573379 0.0540928 0.0533684 0.0573082 0.055665 0.0539726 0.0558128 0.0554613 0.0554074 0.0555786 0.0553481 0.05551 0.0554066 0.0556092 0.0557075 0.057425 0.0555943 0.0555108 0.0539705 0.0532993 0.0574034 0.0554746 0.0538478 0.0573724 0.0555811 0.053868 0.0531815 0.0574019 0.0556507 0.0538701 0.0532274 0.0548966 0.0573939 0.053723 0.0548952 0.0534208 0.0573716 0.0548095 0.0537484 0.0532421 0.0573381 0.0549931 0.0537449 0.0548065 0.0573778 0.0537531 0.0533765 0.054711 0.0538651 0.0573048 0.0533084 0.054901 0.0537327 0.0573432 0.0531558 0.0548278 0.0537175 0.0573119 0.0550088 0.0531069 0.0536284 0.0573096 0.055087 0.0536171 0.0551367 0.0572728 0.0530022 0.0536029 0.0549395 0.0573048 0.0530598 0.0550323 0.057334 0.0539639 0.053153 0.0573068 0.0549776 0.0539574 0.0572862 0.0530106 0.0550914 0.0572546 0.0538367 0.0546292 0.0530019 0.0573469 0.0538335 0.0547224 0.0528909 0.0573527 0.0547659 0.0536871 0.0572998 0.0546267 0.0528222 0.053821 0.0573171 0.0545242 0.057256 0.0532923 0.0572324 0.0538302 0.0545724 0.0571727 0.0532196 0.0537596 0.0546825 0.0572109 0.053061 0.0572667 0.0547938 0.0572215 0.0537417 0.0531789 0.0548667 0.0572296 0.0529081 0.0549209 0.0536526 0.0573526 0.0531276 0.0547978 0.0536971 0.057329 0.0530023 0.0573269 0.0548864 0.0529811 0.0573029 0.0534881 0.052777 0.0547711 0.0573327 0.0528367 0.0536174 0.0548456 0.0573464 0.0535857 0.0526154 0.0552985 0.0537061 0.0528181 0.0573064 0.0552054 0.053562 0.0572981 0.0530261 0.0552538 0.0572723 0.0534659 0.0527416 0.0553656 0.0572647 0.0534442 0.0529527 0.0550546 0.0572299 0.0551751 0.0535372 0.0528463 0.0572623 0.0551406 0.0534171 0.0572172 0.0527065 0.055286 0.0535576 0.0571775 0.0572184 0.0551872 0.0526178 0.0533637 0.0553837 0.0571749 0.0526879 0.0532922 0.0571231 0.0554587 0.052634 0.0571284 0.0534315 0.0570808 0.0524325 0.0555071 0.0571882 0.0532323 0.0553433 0.0571388 0.0523302 0.0535815 0.0570815 0.0553897 0.0525298 0.0536134 0.0571141 0.0570001 0.0554417 0.0524635 0.0536183 0.0570463 0.0522349 0.0550686 0.0534873 0.0570467 0.0569867 0.0549932 0.0534494 0.0522393 0.0569492 0.0551368 0.0533385 0.0520557 0.0570772 0.0534639 0.0549515 0.0570399 0.0522878 0.0534903 0.0550674 0.0518656 0.0534953 0.0569732 0.0550259 0.0518717 0.0533606 0.0571923 0.0552409 0.0571819 0.0534805 0.0520637 0.0551897 0.0571434 0.0520945 0.0533606 0.0571049 0.052313 0.0553158 0.0533511 0.0571178 0.0524983 0.0552835 0.0532226 0.0571382 0.0570925 0.0533324 0.0525011 0.0551717 0.0532086 0.0570576 0.0526178 0.053193 0.055072 0.0570195 0.0521491 0.0569835 0.0530581 0.0552301 0.0570189 0.0523836 0.0530688 0.0570768 0.0559157 0.0532013 0.0570407 0.0522839 0.0561135 0.0530468 0.056978 0.0516576 0.0532135 0.0560123 0.0519048 0.0560431 0.0530658 0.0569236 0.0517077 0.0530679 0.0558729 0.0569656 0.0515003 0.055818 0.0573166 0.0529203 0.051478 0.0572953 0.0559431 0.0533522 0.0517132 0.0572697 0.0559758 0.0533222 0.0520891 0.0573043 0.0561432 0.0532279 0.057258 0.0519276 0.0532102 0.05723 0.0562345 0.0519494 0.0533029 0.0572354 0.0562443 0.0521792 0.057256 0.053115 0.0561501 0.0571972 0.0517607 0.0531629 0.0560605 0.0531894 0.0571645 0.0517467 0.0561475 0.0530756 0.0571411 0.0519692 0.0572098 0.0557635 0.0529709 0.0571785 0.0526511 0.0559009 0.0530418 0.0571138 0.0559621 0.0571497 0.0527302 0.0530955 0.0558483 0.0529555 0.0572319 0.0527448 0.0557207 0.0530863 0.0572708 0.0523747 0.0556507 0.052956 0.0571803 0.052445 0.0557864 0.0528606 0.0572247 0.0558267 0.052568 0.0527896 0.0572365 0.0560451 0.0528152 0.0571818 0.0528157 0.055963 0.0529571 0.057192 0.0560603 0.0528852 0.0529322 0.0571348 0.0558869 0.0528438 0.0570796 0.0525778 0.0560271 0.0528206 0.0571225 0.0559881 0.0527216 0.0570818 0.0563226 0.0527196 0.0527515 0.0570321 0.0564154 0.0526589 0.0570746 0.0521658 0.0564277 0.057116 0.0524258 0.0530008 0.0565003 0.0570598 0.0562367 0.0522216 0.0529498 0.0570213 0.056253 0.0570661 0.0530627 0.0519515 0.0563314 0.0570347 0.0563435 0.0521547 0.0528016 0.0570923 0.0565113 0.0569825 0.0519926 0.0528876 0.057 0.0523912 0.0565968 0.052944 0.0569349 0.0525512 0.0530052 0.0566131 0.0569118 0.0525417 0.053075 0.0564242 0.0569629 0.0527373 0.0565228 0.0568956 0.0523287 0.0528711 0.0565207 0.0568505 0.0523458 0.0528048 0.0561662 0.0570207 0.0512527 0.0561073 0.0526212 0.0569857 0.0512702 0.0562189 0.0569314 0.0512791 0.0527291 0.0563321 0.0569632 0.0514723 0.0561327 0.0510498 0.052433 0.0570272 0.0508515 0.0562489 0.0523664 0.0569726 0.0510835 0.0561558 0.0525479 0.0568875 0.0510685 0.0564342 0.0526253 0.0568684 0.0515432 0.0525697 0.056362 0.0569246 0.0515621 0.0526799 0.056451 0.0568532 0.0517501 0.0523844 0.05626 0.0568157 0.0512265 0.0524818 0.0563801 0.0568009 0.0513684 0.0524285 0.0563676 0.0515833 0.0529414 0.0567417 0.0513871 0.0529132 0.0564695 0.0506296 0.0574297 0.0530206 0.0557167 0.0508482 0.0528147 0.0555989 0.0509668 0.0574454 0.0556555 0.0527337 0.050441 0.0574392 0.0527191 0.0506936 0.0555252 0.0574251 0.0529664 0.0555762 0.0507384 0.0574137 0.0556869 0.050997 0.0574198 0.0530145 0.0558034 0.0511877 0.0574016 0.052847 0.0557653 0.057408 0.0507692 0.0559267 0.0527811 0.057427 0.0510024 0.057411 0.0559143 0.0526619 0.051013 0.0574059 0.0556947 0.0525255 0.057392 0.0517821 0.0558442 0.0526009 0.0573591 0.0558051 0.0518735 0.0524907 0.0573849 0.0516505 0.052316 0.057393 0.0554131 0.0523951 0.0519483 0.0573807 0.0554638 0.0522669 0.0573722 0.0521091 0.0555779 0.0573663 0.0525925 0.0521652 0.0573527 0.0553464 0.0524623 0.0517587 0.0573347 0.0553395 0.0523637 0.0573452 0.0520389 0.0573802 0.0522632 0.0554762 0.0518925 0.0573585 0.055465 0.0522476 0.0573317 0.0514118 0.0555801 0.0573411 0.0521097 0.0514953 0.055754 0.0573228 0.0521471 0.0511443 0.0557086 0.0573251 0.0512318 0.0520002 0.0573878 0.0555104 0.0512678 0.0519263 0.0573742 0.0556188 0.0513673 0.0573461 0.0520184 0.0556603 0.0515806 0.0573433 0.0522042 0.056039 0.0516183 0.0573336 0.0522537 0.0560734 0.0573623 0.0517489 0.0522659 0.0572863 0.0561766 0.051762 0.0520639 0.0573165 0.055968 0.0514551 0.0520702 0.0558912 0.0572328 0.0518986 0.0560274 0.0514006 0.0572732 0.0560485 0.0517782 0.0572729 0.0515286 0.0517115 0.0562733 0.0572793 0.0518494 0.0530217 0.0562831 0.0573104 0.0561724 0.0572329 0.0531413 0.0515891 0.0573013 0.0561535 0.0573339 0.0532311 0.0515298 0.0562764 0.0572942 0.0530373 0.0515376 0.0557962 0.0572962 0.0559336 0.0529048 0.0516842 0.0572649 0.0572527 0.051876 0.0528508 0.0559493 0.0572115 0.053065 0.0517025 0.0558371 0.0572542 0.0572395 0.0532959 0.0518604 0.0557092 0.057146 0.0531765 0.0515469 0.0558263 0.0572023 0.0533319 0.0571955 0.056062 0.0514862 0.0572106 0.0529396 0.0516699 0.0561848 0.0571602 0.0530399 0.0521212 0.0571545 0.0561664 0.0531834 0.0520563 0.0559723 0.0525399 0.0521907 0.0573306 0.0519509 0.0527059 0.0559604 0.0573128 0.051836 0.052735 0.0572913 0.0560773 0.0519847 0.0572915 0.052379 0.0521373 0.0572382 0.0525677 0.0560772 0.0520235 0.0572425 0.0526595 0.0569631 0.0572675 0.0521447 0.052436 0.0570545 0.0573107 0.0570202 0.0528305 0.0519298 0.057287 0.0569571 0.0529195 0.0518281 0.0572401 0.0569767 0.0517271 0.0530663 0.0570098 0.0572847 0.0516447 0.0570305 0.0527491 0.0572655 0.0517789 0.0570716 0.0572135 0.0527415 0.0571103 0.0571873 0.0515215 0.0529102 0.0571195 0.0572419 0.0571552 0.0515524 0.0533149 0.0571945 0.057175 0.0517272 0.0571805 0.0570968 0.0534462 0.0515955 0.0571439 0.0572162 0.0570982 0.0515367 0.0535013 0.0571881 0.0571222 0.0514311 0.0535227 0.0569805 0.0571589 0.0528998 0.0532149 0.0569578 0.057093 0.052915 0.0570437 0.0533819 0.0571177 0.0570207 0.0529143 0.0571349 0.0532599 0.0569733 0.0571938 0.0527512 0.0571597 0.0535973 0.0570287 0.0527304 0.0570968 0.0570696 0.0571403 0.0536757 0.0527202 0.0571326 0.0570177 0.0529204 0.0534145 0.0571896 0.0527742 0.0570964 0.0571898 0.0534948 0.052771 0.0572091 0.0571095 0.0526254 0.0530767 0.0570845 0.0572584 0.0525819 0.0572174 0.0571624 0.053162 0.057196 0.0525924 0.053008 0.0571898 0.0571632 0.0572514 0.0528407 0.0525246 0.0571515 0.0572236 0.0523828 0.053048 0.0571603 0.0572031 0.0523727 0.0572373 0.0571027 0.0533822 0.0572298 0.0525625 0.0571037 0.0572612 0.0533162 0.0523366 0.0571058 0.0572813 0.0573191 0.0570958 0.0531985 0.0521914 0.0573711 0.057047 0.0521904 0.0532782 0.057352 0.0571248 0.0525446 0.0573304 0.0571421 0.0524518 0.0534567 0.0572955 0.0570858 0.0572957 0.0521963 0.0570715 0.0530981 0.0573253 0.0523443 0.0570517 0.0573628 0.0521802 0.0531535 0.057005 0.0572334 0.0522449 0.0522662 0.0569944 0.0572637 0.0527195 0.0572702 0.0570271 0.0522035 0.0570302 0.0526946 0.0572119 0.0523742 0.0572373 0.052589 0.056971 0.0520622 0.0572526 0.0525544 0.0569608 0.0521544 0.0572996 0.0524937 0.0573227 0.0522519 0.0569196 0.0573526 0.0569485 0.0524374 0.0526836 0.0573611 0.0525333 0.0568602 0.0572913 0.0525752 0.0526084 0.0572893 0.0568716 0.0525759 0.0524645 0.0573185 0.0571931 0.0525191 0.0522906 0.0573245 0.0571383 0.0523931 0.0524264 0.0573508 0.0571922 0.0523269 0.0517698 0.0569421 0.0571451 0.0519356 0.0569135 0.0522561 0.0571891 0.0520379 0.0569871 0.0523871 0.0570827 0.0570174 0.0516324 0.0523567 0.057071 0.051926 0.0523156 0.0568763 0.0571289 0.0521718 0.0518671 0.0569207 0.057003 0.0522037 0.0517524 0.0568498 0.0570698 0.0520341 0.0521131 0.0569835 0.0570191 0.052029 0.0521733 0.0570538 0.0569555 0.0521582 0.0570702 0.0523821 0.0571519 0.052199 0.0522468 0.0571292 0.0571049 0.0570406 0.0520971 0.0571003 0.0520224 0.0570651 0.0519855 0.0520619 0.0571002 0.0570956 0.0519809 0.0527016 0.0570562 0.0568705 0.057045 0.0519341 0.0529338 0.0568998 0.0569895 0.0569426 0.0519784 0.052899 0.0570334 0.0519099 0.0568218 0.0569831 0.0525593 0.0569685 0.0520011 0.0526741 0.0567607 0.0568935 0.0517477 0.052777 0.0568349 0.0569177 0.0517961 0.056968 0.0529845 0.0568981 0.0519981 0.0570053 0.0530013 0.0568377 0.0518394 0.0570884 0.0528194 0.0570328 0.056981 0.0520325 0.0569078 0.0569