# vtk DataFile Version 3.0
vtk output
ASCII
DATASET UNSTRUCTURED_GRID
POINTS 31161 float
0 0 0
1 0 0
1 1 0
0 1 0
0 0 0
0 0 0
1 0 0
1 1 0
0 1 0
0 0 0
0.984242 0 0
1 0 0
1 0.0601037 0
0.984242 0 0
0 0 0
1 0 0
1 1 0
0 1 0
0 0 0
0 0 0
1 0 0
1 1 0
0 1 0
0 0 0
0 0 0
1 0 0
1 1 0
0 1 0
0 0 0
0 0 0
1 0 0
1 1 0
0 1 0
0 0 0
0.825286 0.916086 0
0.922547 0.503307 0
0.99902 0.212452 0
1 0.20916 0
1 1 0
0.806332 1 0
0.825286 0.916086 0
0 0 0
1 0 0
1 1 0
0 1 0
0 0 0
0 0 0
1 0 0
1 1 0
0 1 0
0 0 0
0 0 0
1 0 0
1 1 0
0 1 0
0 0 0
0 0 0
1 0 0
1 1 0
0 1 0
0 0 0
0 0 0
1 0 0
1 1 0
0 1 0
0 0 0
0 0 0
1 0 0
1 1 0
0 1 0
0 0 0
0 0 0
1 0 0
1 1 0
0 1 0
0 0 0
0 0 0
1 0 0
1 1 0
0 1 0
0 0 0
0 0 0
1 0 0
1 1 0
0 1 0
0 0 0
0 0 0
1 0 0
1 1 0
0 1 0
0 0 0
0 0 0
1 0 0
1 1 0
0 1 0
0 0 0
0.137398 0 0
1 0 0
1 0.992767 0
0.656285 0.60762 0
0.137398 0 0
0 0 0
1 0 0
1 1 0
0 1 0
0 0 0
0 0 0
1 0 0
1 1 0
0 1 0
0 0 0
0 0 0
1 0 0
1 1 0
0 1 0
0 0 0
0 0 0
1 0 0
1 1 0
0 1 0
0 0 0
0 0 0
1 0 0
1 1 0
0 1 0
0 0 0
0 0 0
1 0 0
1 1 0
0 1 0
0 0 0
0.157703 0 0
1 0 0
1 0.881739 0
0.696463 0.572834 0
0.164579 0.00753557 0
0.157703 0 0
0 0 0
1 0 0
1 1 0
0 1 0
0 0 0
0 0 0
1 0 0
1 1 0
0 1 0
0 0 0
0 0 0
1 0 0
1 1 0
0 1 0
0 0 0
0 0 0
1 0 0
1 1 0
0 1 0
0 0 0
0.250201 0 0
1 0 0
1 0.899007 0
0.481621 0.286302 0
0.250201 0 0
0 0 0
1 0 0
1 1 0
0 1 0
0 0 0
0 0 0
1 0 0
1 1 0
0 1 0
0 0 0
0 0 0
1 0 0
1 1 0
0 1 0
0 0 0
0 0 0
1 0 0
1 1 0
0 1 0
0 0 0
0 0 0
1 0 0
1 1 0
0.963098 1 0
0 0.00533522 0
0 0 0
0 0 0
1 0 0
1 1 0
0 1 0
0 0 0
0 0 0
1 0 0
1 1 0
0 1 0
0 0 0
0 0 0
1 0 0
1 1 0
0 1 0
0 0 0
0 0 0
1 0 0
1 1 0
0 1 0
0 0 0
0.135643 0 0
1 0 0
1 1 0
0.939582 1 0
0.561901 0.541193 0
0.135643 0 0
0 0 0
1 0 0
1 1 0
0 1 0
0 0 0
0 0 0
1 0 0
1 1 0
0 1 0
0 0 0
0 0 0
1 0 0
1 1 0
0 1 0
0 0 0
0 0 0
1 0 0
1 1 0
0 1 0
0 0 0
0 0 0
1 0 0
1 1 0
0 1 0
0 0 0
0.101055 0 0
1 0 0
1 0.876001 0
0.970605 0.848247 0
0.101055 0 0
0 0 0
1 0 0
1 1 0
0 1 0
0 0 0
0 0 0
1 0 0
1 1 0
0 1 0
0 0 0
0 0 0
1 0 0
1 1 0
0 1 0
0 0 0
0 0 0
1 0 0
1 1 0
0 1 0
0 0 0
0 0 0
1 0 0
1 1 0
0 1 0
0 0 0
0.348103 0 0
1 0 0
1 0.960651 0
0.788949 0.661555 0
0.348103 0 0
0 0 0
1 0 0
1 1 0
0 1 0
0 0 0
0 0 0
1 0 0
1 1 0
0 1 0
0 0 0
0 0 0
1 0 0
1 1 0
0 1 0
0 0 0
0 0 0
1 0 0
1 1 0
0 1 0
0 0 0
0 0 0
1 0 0
1 1 0
0 1 0
0 0 0
0.272931 0 0
1 0 0
1 0.782341 0
0.840645 0.616778 0
0.288982 0.0180867 0
0.272931 0 0
0 0 0
1 0 0
1 1 0
0 1 0
0 0 0
0 0 0
1 0 0
1 1 0
0 1 0
0 0 0
0 0 0
1 0 0
1 1 0
0 1 0
0 0 0
0 0 0
1 0 0
1 1 0
0 1 0
0 0 0
0.418945 0 0
1 0 0
1 1 0
0.978269 1 0
0.554718 0.262211 0
0.418945 0 0
0.202681 0 0
1 0 0
1 0.84499 0
0.705592 0.541125 0
0.592093 0.421521 0
0.202681 0 0
0 0 0
1 0 0
1 1 0
0 1 0
0 0 0
0 0.153772 0
1 0.654724 0
1 1 0
0 1 0
0 0.153772 0
0.120488 0 0
1 0 0
1 0.889803 0
0.958376 0.849006 0
0.120488 0 0
0.37739 0 0
1 0 0
1 1 0
0.996104 1 0
0.776848 0.659588 0
0.37739 0 0
0 0.124133 0
0.128095 0.199477 0
0.131958 0.20181 0
1 0.740592 0
1 1 0
0 1 0
0 0.124133 0
0 0 0
1 0 0
1 1 0
0 1 0
0 0 0
0.286717 0 0
1 0 0
1 0.939957 0
0.493485 0.28176 0
0.286717 0 0
0 0 0
1 0 0
1 1 0
0 1 0
0 0 0
0 0 0
1 0 0
1 1 0
0 1 0
0 0 0
0 0 0
1 0 0
1 1 0
0 1 0
0 0 0
0.0137372 0 0
1 0 0
1 1 0
0.948623 1 0
0.0137372 0 0
0 0 0
1 0 0
1 1 0
0 1 0
0 0 0
0.153554 0 0
1 0 0
1 1 0
0.924131 1 0
0.561891 0.541193 0
0.153554 0 0
0 0 0
1 0 0
1 1 0
0 1 0
0 0 0
0 0 0
1 0 0
1 1 0
0 1 0
0 0 0
0 0 0
0.212074 0 0
0.411653 0.234307 0
1 0.943866 0
1 1 0
0 1 0
0 0 0
0 0 0
1 0 0
1 1 0
0 1 0
0 0 0
0 0 0
1 0 0
1 1 0
0 1 0
0 0 0
0 0 0
1 0 0
1 1 0
0 1 0
0 0 0
0.170485 0 0
1 0 0
1 1 0
0.910406 1 0
0.562351 0.54119 0
0.170485 0 0
0 0 0
1 0 0
1 1 0
0 1 0
0 0 0
0 0 0
1 0 0
1 1 0
0 1 0
0 0 0
0 0 0
1 0 0
1 1 0
0 1 0
0 0 0
0 0 0
1 0 0
1 1 0
0 1 0
0 0 0
0 0.174123 0
0.988971 0.77594 0
1 0.783089 0
1 1 0
0 1 0
0 0.174123 0
0 0 0
1 0 0
1 1 0
0 1 0
0 0 0
0 0 0
1 0 0
1 1 0
0 1 0
0 0 0
0 0 0
1 0 0
1 1 0
0 1 0
0 0 0
0.0233244 0 0
1 0 0
1 1 0
0.789115 1 0
0.410348 0.517214 0
0.0233244 0 0
0 0 0
1 0 0
1 1 0
0 1 0
0 0 0
0 0 0
1 0 0
1 1 0
0 1 0
0 0 0
0 0.213061 0
0.914568 0.738165 0
1 0.789291 0
1 1 0
0 1 0
0 0.213061 0
0 0 0
1 0 0
1 1 0
0 1 0
0 0 0
0 0 0
1 0 0
1 1 0
0 1 0
0 0 0
0.175198 0 0
1 0 0
1 0.9107 0
0.58054 0.456654 0
0.175198 0 0
0 0 0
1 0 0
1 1 0
0 1 0
0 0 0
0 0 0
0.02835 0 0
0.0579959 0.0293341 0
0.767588 0.744398 0
1 0.991121 0
1 1 0
0 1 0
0 0 0
0 0 0
1 0 0
1 1 0
0 1 0
0 0 0
0.303069 0 0
1 0 0
1 0.960177 0
0.499122 0.279603 0
0.303069 0 0
0 0 0
1 0 0
1 1 0
0 1 0
0 0 0
0 0 0
1 0 0
1 1 0
0 1 0
0 0 0
0 0 0
0.0803761 0 0
0.336716 0.256743 0
0.927635 0.865397 0
1 0.942532 0
1 1 0
0 1 0
0 0 0
0 0 0
1 0 0
1 1 0
0 1 0
0 0 0
0 0 0
1 0 0
1 1 0
0 1 0
0 0 0
0 0 0
1 0 0
1 1 0
0 1 0
0 0 0
0.207646 0 0
1 0 0
1 1 0
0.945559 1 0
0.646604 0.606705 0
0.207646 0 0
0 0 0
1 0 0
1 1 0
0 1 0
0 0 0
0 0 0
0.193169 0 0
0.403851 0.233937 0
1 0.913455 0
1 1 0
0 1 0
0 0 0
0 0 0
1 0 0
1 1 0
0 1 0
0 0 0
0 0 0
1 0 0
1 1 0
0 1 0
0 0 0
0 0 0
1 0 0
1 1 0
0 1 0
0 0 0
0.200236 0.0956685 0
0.132844 0 0
1 0 0
1 1 0
0.86374 1 0
0.200236 0.0956685 0
0 0 0
1 0 0
1 1 0
0 1 0
0 0 0
0 0.136843 0
0.543042 0.478989 0
0.714695 0.591141 0
1 0.78471 0
1 1 0
0 1 0
0 0.136843 0
0 0 0
1 0 0
1 1 0
0 1 0
0 0 0
0 0 0
1 0 0
1 1 0
0 1 0
0 0 0
0 0 0
1 0 0
1 1 0
0 1 0
0 0 0
0 0 0
0.0147466 0 0
0 0.0381866 0
0 0 0
0 0 0
1 0 0
1 1 0
0 1 0
0 0 0
0 0.137553 0
0.101586 0.191086 0
0.622374 0.473004 0
1 0.687197 0
1 1 0
0 1 0
0 0.137553 0
0 0 0
1 0 0
1 1 0
0 1 0
0 0 0
0.236399 0 0
1 0 0
1 0.951472 0
0.690839 0.576542 0
0.236399 0 0
0 0 0
1 0 0
1 1 0
0 1 0
0 0 0
0 0.21599 0
0.109746 0.2648 0
1 0.687667 0
1 1 0
0 1 0
0 0.21599 0
0.425023 0 0
1 0 0
1 0.744557 0
0.734688 0.411634 0
0.493667 0.0937805 0
0.425023 0 0
0 0.157128 0
0.55848 0.50932 0
0.905568 0.738774 0
1 0.803861 0
1 1 0
0 1 0
0 0.157128 0
0 0 0
1 0 0
1 1 0
0 1 0
0 0 0
0.457144 0 0
1 0 0
1 0.625286 0
0.808741 0.411935 0
0.457144 0 0
0 0 0
1 0 0
1 1 0
0 1 0
0 0 0
0 0 0
1 0 0
1 1 0
0 1 0
0 0 0
0 0 0
0.319343 0 0
0.804629 0.593691 0
1 0.844314 0
1 1 0
0 1 0
0 0 0
0 0 0
1 0 0
1 1 0
0 1 0
0 0 0
0.414543 0 0
1 0 0
1 0.832401 0
0.644956 0.338307 0
0.414543 0 0
0 0 0
1 0 0
1 1 0
0 1 0
0 0 0
0 0 0
1 0 0
1 1 0
0 1 0
0 0 0
0 0.213039 0
0.986859 0.751597 0
1 0.759279 0
1 1 0
0 1 0
0 0.213039 0
0 0 0
1 0 0
1 1 0
0 1 0
0 0 0
0.399501 0 0
1 0 0
1 0.817689 0
0.641512 0.339986 0
0.399501 0 0
0 0 0
1 0 0
1 1 0
0 1 0
0 0 0
0 0 0
1 0 0
1 1 0
0 1 0
0 0 0
0 0 0
1 0 0
1 1 0
0 1 0
0 0 0
0 0 0
1 0 0
1 1 0
0 1 0
0 0 0
0 0 0
0.316768 0 0
1 0.509909 0
1 1 0
0 1 0
0 0 0
0.502576 0 0
1 0 0
1 0.874123 0
0.687086 0.345313 0
0.658989 0.295155 0
0.502576 0 0
0 0 0
0.0112873 0 0
0 0.018665 0
0 0 0
0 0 0
0.370411 0 0
0.609927 0.158249 0
0.796481 0.284619 0
1 0.428568 0
1 1 0
0 1 0
0 0 0
0 0 0
1 0 0
1 1 0
0 1 0
0 0 0
0.197946 0 0
1 0 0
1 0.522705 0
0.576196 0.258363 0
0.197946 0 0
0 0 0
0.00976573 0 0
0 0.0147932 0
0 0 0
0 0 0
0.214563 0 0
0.464168 0.161421 0
1 0.514375 0
1 1 0
0 1 0
0 0 0
0.474181 0 0
1 0 0
1 0.635477 0
0.808972 0.41188 0
0.474181 0 0
0 0 0
0.252044 0 0
0 0.147408 0
0 0 0
0 0 0
0.00758861 0 0
0 0.0106307 0
0 0 0
0 0 0
0.20621 0 0
0.713658 0.308084 0
1 0.487602 0
1 1 0
0 1 0
0 0 0
0.4223 0 0
1 0 0
1 0.480876 0
0.648263 0.197885 0
0.4223 0 0
0 0 0
0.0280646 0 0
0 0.00953001 0
0 0 0
0 0 0
0.321545 0 0
1 0.424071 0
1 1 0
0 1 0
0 0 0
0 0 0
0.042506 0 0
0.017875 0.0419034 0
0 0.0695609 0
0 0 0
0 0 0
1 0 0
1 1 0
0 1 0
0 0 0
0.481084 0 0
1 0 0
1 0.711012 0
0.889226 0.567849 0
0.481084 0 0
0 0 0
0.354262 0 0
0 0.241652 0
0 0 0
0 0 0
1 0 0
1 1 0
0 1 0
0 0 0
0 0 0
0.0920542 0 0
0 0.197784 0
0 0 0
0.324337 0 0
1 0 0
1 0.531227 0
0.631786 0.251854 0
0.324337 0 0
0 0 0
0.188179 0 0
0 0.0740684 0
0 0 0
0 0 0
0.34195 0 0
0.600472 0.160516 0
0.796151 0.285088 0
1 0.420751 0
1 1 0
0 1 0
0 0 0
0.432066 0 0
1 0 0
1 0.493699 0
0.648298 0.197814 0
0.432066 0 0
0 0 0
0.0537281 0 0
0.0301868 0.048352 0
0 0.104387 0
0 0 0
0 0 0
1 0 0
1 1 0
0 1 0
0 0 0
0.253391 0 0
1 0 0
1 0.525966 0
0.578067 0.240168 0
0.253391 0 0
0 0 0
0.0540838 0 0
0.0288848 0.04767 0
0 0.0971779 0
0 0 0
0.402835 0 0
1 0 0
1 1 0
0.97321 1 0
0.769941 0.658465 0
0.402835 0 0
0.83974 0 0
1 0 0
1 0.0709064 0
0.83974 0 0
0 0 0
0.0830422 0 0
0 0.160106 0
0 0 0
0 0 0
0.284629 0 0
0.718781 0.346573 0
0.834743 0.442062 0
1 0.583125 0
1 1 0
0 1 0
0 0 0
0.391825 0 0
1 0 0
1 1 0
0.982607 1 0
0.772535 0.658887 0
0.391825 0 0
0 0 0
0.0809072 0 0
0 0.0316164 0
0 0 0
0 0 0
0.160203 0 0
0.731336 0.357091 0
1 0.536411 0
1 1 0
0 1 0
0 0 0
0.435753 0 0
1 0 0
1 0.859204 0
0.649182 0.336246 0
0.435753 0 0
0.456156 0 0
1 0 0
1 0.775924 0
0.736477 0.411153 0
0.499853 0.066013 0
0.456156 0 0
0 0 0
0.0888501 0 0
1 0.604276 0
1 1 0
0 1 0
0 0 0
0.793834 0 0
1 0 0
1 0.0970605 0
0.976673 0.0867688 0
0.793834 0 0
0.353147 0 0
1 0 0
1 0.917473 0
0.773367 0.607903 0
0.618931 0.393659 0
0.571366 0.324707 0
0.353147 0 0
0 0 0
0.17593 0 0
0.722079 0.382737 0
1 0.584316 0
1 1 0
0 1 0
0 0 0
0 0 0
0.325696 0 0
0 0.210361 0
0 0 0
0 0 0
0.0133963 0 0
0 0.00722942 0
0 0 0
0 0 0
0.115716 0 0
0 0.0399066 0
0 0 0
0.43068 0 0
1 0 0
1 0.984304 0
0.43664 0.0111001 0
0.43068 0 0
0 0 0
0.00196374 0 0
0 0.000996178 0
0 0 0
0 0 0
0.199245 0 0
0.723731 0.381652 0
1 0.58969 0
1 1 0
0 1 0
0 0 0
0 0 0
0.232669 0 0
0 0.0882916 0
0 0 0
0.522395 0 0
1 0 0
1 0.928443 0
0.688042 0.345046 0
0.662302 0.294036 0
0.522395 0 0
0 0 0
0.328125 0 0
0.329914 0.00118551 0
1 0.460852 0
1 1 0
0 1 0
0 0 0
0 0 0
0.436188 0 0
0.0760134 0.206179 0
0.0656317 0.211937 0
0 0.247349 0
0 0 0
0 0 0
0.0416686 0 0
0 0.0163567 0
0 0 0
0 0 0
0.178092 0 0
0.711779 0.310542 0
1 0.483834 0
1 1 0
0 1 0
0 0 0
0 0 0
0.274173 0 0
0 0.11297 0
0 0 0
0.562752 0.0621464 0
0.60018 0 0
1 0 0
1 0.651558 0
0.815462 0.410334 0
0.562752 0.0621464 0
0 0 0
0.336603 0 0
0.362067 0.0148205 0
1 0.394478 0
1 1 0
0 1 0
0 0 0
0 0 0
0.114008 0 0
0 0.244804 0
0 0 0
0.858435 0 0
1 0 0
1 0.0760033 0
0.858435 0 0
0.369738 0.589571 0
0.637496 0 0
1 0 0
1 1 0
0.192313 1 0
0.369738 0.589571 0
0 0 0
0.0847613 0 0
0 0.222331 0
0 0 0
0 0 0
0.0772145 0 0
0.171574 0.052977 0
0.716682 0.365813 0
1 0.534258 0
1 1 0
0 1 0
0 0 0
0.517674 0 0
1 0 0
1 0.343916 0
0.708636 0.139957 0
0.517674 0 0
0 0 0
[...]
CELL_DATA 5886
FIELD FieldData 3
weight 1 5886 float
 1.02179 1.02185 0.78426 1.02824 1.02819 0.971846 0.978291 0.771953 0.978124 0.984465 0.984279 0.984324 0.977883 0.978147 0.984536 0.990473 0.984263 0.990438 0.990755 0.934613 0.990472 0.996827 1.0029 0.996757 0.996965 1.00307 0.928339 1.00324 0.996673 0.996765 1.00312 0.921932 1.0031 1.00295 0.978213 0.984322 0.946634 0.984378 0.977965 0.990453 0.990865 0.940873 0.990396 0.98433 0.984513 0.990742 0.997106 0.934133 0.990389 0.996994 1.00312 0.997103 1.00311 0.915613 0.996646 1.00922 1.00943 1.00954 1.00329 0.921757 1.003 1.01564 1.00919 1.00916 0.90953 0.928132 1.0157 1.19064 0.9344 0.915789 1.1842 1.00959 0.921693 1.00952 1.00957 1.01573 0.94665 1.01583 0.940849 1.01586 1.022 1.19063 1.01566 1.00958 1.00917 0.940684 1.0094 0.953341 1.02163 1.01558 1.19686 1.02195 1.0219 1.02794 0.953341 1.02831 1.02801 1.1908 1.03413 1.03433 0.928048 1.02184 1.19667 1.03427 0.922109 1.02798 1.0344 1.19674 1.04067 1.01577 1.01584 0.934574 1.0221 1.19673 1.02202 1.02793 1.02805 0.946719 1.01569 1.1904 1.02187 1.02201 1.02809 0.740723 1.02182 1.19697 1.02788 0.928301 1.03455 1.19692 0.90311 1.19684 1.02795 0.890622 1.03416 1.04061 1.19665 1.04696 0.90913 1.04071 1.03441 1.19707 1.03431 0.909572 1.03454 1.03437 1.04067 1.04079 1.17184 0.897039 0.734387 1.17808 1.17207 0.884535 0.734207 1.18419 0.890461 0.702997 0.734422 1.17806 0.871711 0.721657 1.17799 0.734483 1.17211 0.897014 0.709412 1.1719 0.747101 0.884326 0.721653 1.17171 0.87803 0.740483 1.17171 0.878045 0.740773 0.915584 0.728257 0.740782 1.17815 0.915629 0.721947 1.17803 0.909595 0.902925 1.19086 0.734283 0.921956 1.18413 0.703047 0.746706 0.715486 0.915618 0.74701 1.1844 0.721732 0.903018 1.17817 0.740491 0.746791 1.17166 0.728334 0.884586 1.17799 0.74664 0.727996 0.890391 0.746727 1.17811 0.753136 0.752882 0.909172 1.1782 0.752928 0.746993 0.89074 1.17817 1.17169 1.17809 0.896805 1.17816 0.959501 1.17174 0.959615 0.759466 1.17811 0.965434 1.17205 0.971928 1.17832 0.959315 1.17808 0.765856 1.17834 0.953117 1.18446 0.946741 1.17804 0.77164 1.17824 0.940692 1.18439 0.953245 1.18436 1.18422 1.18444 0.765624 0.947029 1.17795 1.18416 0.746832 1.18429 0.940507 0.978144 0.753375 0.965765 0.753031 0.734145 1.17819 0.759458 0.971664 1.18446 0.759433 0.978321 0.965511 0.972014 0.959151 1.19085 0.765393 0.715382 0.959528 1.19081 0.727893 0.965771 0.959603 0.734209 1.18428 0.965808 0.734213 0.971844 0.734561 0.972051 0.97169 0.721665 1.18417 0.734611 0.934306 0.728118 1.19676 0.722094 0.934243 0.740874 1.19042 0.734325 0.928226 0.727936 1.1842 0.921884 0.728272 1.18462 0.940462 0.740868 1.18435 0.7344 0.928199 1.19701 0.740697 0.928081 1.19064 0.75297 1.19086 0.915398 0.740708 1.18441 0.90312 0.74694 1.1906 0.902894 1.19687 0.747061 0.728061 1.19669 0.897053 0.721875 1.19678 0.765865 0.921759 1.19702 0.75923 0.90936 0.709502 1.19085 0.772053 0.921815 0.715851 1.19062 0.909199 0.727882 0.752889 1.19047 0.734178 0.934232 1.18454 0.721837 0.946675 1.1968 0.75932 0.734199 0.934483 0.734156 0.765667 0.740771 1.19672 0.740522 0.940707 0.765429 0.746736 1.19677 0.934282 0.753014 1.18428 0.740658 0.915689 1.18427 0.778352 0.915669 1.19079 1.19058 0.784139 0.72814 0.921756 1.1908 1.19062 0.784255 0.746764 0.92807 1.18425 0.753278 0.928116 0.790874 0.752924 1.18454 0.740575 0.797085 0.921845 1.19064 0.740586 1.19711 0.790726 0.846761 0.734127 1.19041 0.871907 0.740441 0.771895 1.19062 0.84081 0.746789 0.78449 0.840675 1.19057 0.753297 0.877913 0.778322 0.871672 0.752881 1.19683 0.865537 0.778255 1.19687 0.746649 0.859236 1.19702 0.7471 0.834144 0.796685 0.747002 0.834521 1.19712 0.753249 0.796682 0.815762 0.75291 0.803038 0.853065 0.759601 1.19056 0.834508 0.790489 0.753083 0.834416 0.759338 0.803001 1.19081 0.828035 0.759569 0.865598 0.815395 1.19694 0.753065 0.884437 0.815566 1.19666 0.859216 0.759504 0.802927 0.878322 0.76543 0.765844 0.89057 0.759595 1.19675 0.884549 0.765471 0.821744 0.865814 1.19696 0.765517 1.04676 0.834414 0.846914 1.04688 0.765618 1.04683 1.05291 0.84701 1.05325 0.828007 0.771986 1.05326 1.0404 0.840692 1.04067 1.04703 0.82208 1.05321 0.852998 1.04708 0.771817 1.06543 0.846948 1.06545 1.05931 0.809496 1.05954 0.771774 1.07169 1.06572 0.815675 0.753221 1.06557 0.803123 1.05956 1.05939 1.06568 0.803296 1.06539 1.05949 0.809375 1.04682 0.759618 1.04709 0.809215 1.04682 1.04075 0.759315 0.80925 1.05303 0.790831 1.05326 1.05313 1.04038 1.04076 0.759244 1.04701 1.04693 1.04081 1.05337 1.05932 0.821786 1.05915 1.05926 0.7658 1.06567 0.821897 0.76544 1.05956 0.815726 1.05336 1.04674 0.759388 1.05297 0.803191 1.05315 1.06552 0.772076 0.765853 1.05925 0.796693 1.05917 1.0719 0.7655 1.07796 0.778368 1.07181 0.78425 0.765542 1.08418 0.777988 1.07815 0.759226 1.07835 0.78431 0.772073 1.07185 0.771924 1.07163 0.790518 1.06581 1.07808 0.790573 0.771674 1.08446 0.784477 1.07164 0.784391 1.09047 0.771878 1.08449 1.08447 0.772003 1.09051 1.09684 0.778147 1.0905 1.09054 1.07796 0.777984 1.08435 1.0968 0.772085 0.828143 1.09044 1.08442 1.09068 0.77801 0.803357 0.772009 0.815641 0.790695 1.07189 0.784587 1.06586 1.07796 0.784286 0.809259 1.07187 0.784257 1.07191 1.06582 0.828067 1.06587 0.778057 1.0779 0.797009 1.07188 1.07206 0.784344 1.08415 0.803278 0.834197 1.07826 1.09067 1.08439 0.77819 1.09058 1.09706 1.07821 0.7782 1.08435 0.796851 0.821988 1.0782 0.790506 1.0844 1.08414 1.03449 0.803149 0.784136 0.815663 1.04067 0.821893 1.03437 0.790651 0.79673 1.03451 0.815579 1.04053 1.04703 0.784504 1.04072 0.821923 1.02809 1.02165 0.809235 0.790764 1.0344 1.02794 1.05314 0.803034 1.04669 0.809532 1.05328 1.05323 0.809352 1.04087 1.04065 0.803241 1.03418 1.04695 0.797116 1.05335 0.821834 1.04663 1.04688 0.796985 1.03413 0.815849 1.0217 1.01586 1.01548 0.896649 1.00941 0.822015 1.02181 0.746729 1.02826 0.815438 1.01559 1.00925 0.890639 1.00318 0.996728 1.01561 1.00922 0.871943 1.02819 1.03434 1.028 1.04048 1.03413 1.02201 1.02808 0.896863 1.01573 1.0221 1.03433 0.903115 1.02799 1.01578 1.05927 0.878118 1.05942 1.06548 1.0658 1.06559 0.884458 1.07163 1.0595 1.05301 0.859532 1.0594 1.06553 1.05955 0.853109 0.746865 1.07806 1.07209 0.865456 1.07178 0.752955 0.859541 1.078 1.09058 1.08436 0.746916 1.07798 0.865537 0.746765 1.07827 1.07207 1.06567 1.078 0.909215 0.753072 1.07196 0.753359 1.04705 1.04667 0.753265 1.04044 1.05288 1.05333 0.753365 0.903179 1.0406 0.765558 0.753311 1.02195 1.03458 0.765729 0.890795 1.04686 1.04058 1.02792 1.06543 0.759317 0.915671 0.747049 1.05923 1.05957 0.746808 1.05311 0.896848 1.072 0.753344 1.06559 1.05933 0.915742 0.753265 1.04697 0.759218 0.759145 1.03461 0.871999 1.05333 1.04691 0.872021 1.04087 0.765794 0.759269 1.10318 1.09663 1.10336 0.759255 0.8782 0.759422 1.10956 0.765806 1.10932 0.884586 0.759295 1.09695 1.09696 0.765469 0.878214 1.09674 1.10302 1.10326 1.10313 0.715688 1.12173 0.753303 0.871922 1.12167 1.11543 0.728231 1.10933 1.1158 0.759215 0.865396 1.11571 1.1221 1.10943 0.765496 1.10918 1.11562 0.703237 0.834135 1.12196 0.759136 1.11586 1.11543 1.0969 0.759577 0.840624 1.10303 0.765776 0.709471 1.09078 1.10332 1.10337 0.822072 1.09676 0.765653 1.09079 1.09689 0.765544 1.09677 0.846846 0.722082 0.771674 1.10334 1.09675 0.840798 1.10943 0.73443 0.77163 0.75329 0.82792 0.734409 0.815495 0.765863 1.10924 0.759188 1.10946 0.80951 1.10322 0.772005 1.10949 1.11558 0.740858 1.1155 0.797117 0.77791 1.10928 0.746816 0.803091 0.771907 1.10922 0.740663 1.12177 1.10306 0.778222 0.802911 0.734336 1.10298 1.11562 0.734333 1.12798 1.12824 1.12795 0.746846 0.821631 1.12202 0.752985 1.13452 1.13459 0.746858 1.12205 0.815603 1.11552 0.772081 1.12171 1.12835 1.12813 0.828066 0.77822 1.12799 0.759569 1.14049 0.809302 1.13415 1.13428 1.14042 0.759316 1.14053 0.809263 1.13434 0.784208 1.13413 1.12209 1.13424 1.14057 0.747 0.853106 0.790565 1.12806 0.753127 1.12207 1.1279 1.1221 0.747019 0.834412 0.790464 1.12799 1.11564 0.784156 1.11585 1.10933 1.10943 0.778252 0.84667 1.12208 0.771743 1.11573 1.12823 1.12807 0.772119 0.852994 1.12203 1.13434 0.784241 1.14083 1.14044 0.79044 1.12825 0.840606 0.790497 1.13428 1.13438 1.12813 0.790679 1.1155 1.12165 0.747059 0.83459 1.12207 1.09044 0.784163 0.759141 1.09039 1.08458 1.09688 0.803218 1.0908 0.778239 0.822028 1.0971 0.796655 1.08425 0.765731 1.08414 1.07796 0.815764 1.08461 0.803336 0.765751 1.08423 1.07826 1.10294 0.815394 1.09693 0.796839 0.772036 1.0969 1.10295 1.0906 0.809623 0.77169 1.09074 0.828285 0.815485 1.08448 1.09086 0.765489 1.10294 1.09666 1.09695 0.809424 1.07182 0.76563 0.821664 1.06577 0.796955 1.07188 0.772038 1.07166 1.07187 1.05933 0.821707 0.802976 1.05302 0.778166 1.06539 1.06547 0.79705 1.05913 1.06562 0.79043 1.05921 0.828279 0.809568 1.09044 1.07824 1.07803 1.07822 1.07791 1.08413 1.08423 1.0904 1.06568 1.07211 1.06553 1.08425 1.07194 1.10332 1.1096 1.10945 1.11542 1.10929 1.11541 1.10325 1.10332 1.10947 1.10962 1.09708 1.12186 1.12163 1.13426 1.12805 1.122 1.11575 1.11556 1.10305 1.12176 1.10962 1.09087 1.08417 1.09709 1.10305 1.09059 1.09043 1.07792 1.09692 1.10289 1.08449 1.10945 1.10334 1.09671 1.10957 1.10961 1.11544 1.1157 1.09062 0.78421 1.09669 1.09674 0.802905 1.10326 0.784475 1.1029 0.777982 0.821718 0.809166 1.10941 0.796998 0.996833 0.990554 0.803317 0.978354 0.771838 0.83427 0.98433 0.99066 0.77792 0.777895 1.00304 0.996692 0.984175 0.771866 0.765855 0.828356 0.978118 0.778165 0.752982 0.978071 0.98446 0.978203 0.759372 0.834197 0.984621 1.00925 0.784432 1.00306 0.990771 1.01574 0.778155 0.790412 0.840776 0.77197 0.997017 0.784418 0.990828 0.777941 0.990813 0.796784 0.984601 0.84712 0.996645 0.759423 1.00333 0.803106 0.753136 0.997109 0.80303 0.996906 0.8404 0.765793 0.790568 0.952953 0.765568 0.809499 0.871874 0.777999 0.946735 0.765799 0.771835 0.771712 0.959469 0.872097 0.771838 0.771856 0.771677 0.953271 0.853354 0.790744 0.771671 0.796638 0.859247 0.934502 0.778175 0.78451 0.928329 0.87204 0.778229 0.784134 0.859338 0.777882 0.809212 0.9405 0.802993 0.834609 0.778288 0.940485 0.796869 0.840469 0.784429 0.790756 0.934573 0.778208 0.778248 0.846817 0.784145 0.990389 0.784587 0.784326 0.852876 0.965779 0.78422 0.778033 0.971892 0.840792 0.79052 0.790768 0.846839 0.959517 0.777945 0.790639 0.977911 0.784488 0.859327 0.971974 0.840795 0.784246 0.865452 0.78436 0.834602 0.947022 0.790584 0.87827 0.840522 0.946702 0.790672 0.865811 0.79084 0.853098 0.797119 0.872053 0.846897 0.940755 0.790638 0.796921 0.853313 0.872108 0.965436 0.796625 0.884254 0.846726 0.953263 0.809285 0.959204 0.840761 0.790626 0.790395 0.884147 0.952934 0.796809 0.828253 1.02211 1.01574 0.796724 1.00925 0.8904 0.827908 1.03439 1.02803 1.0221 0.796948 1.00957 0.803257 1.00316 0.884387 1.00331 1.01586 0.79054 0.834518 1.00933 0.796971 0.890578 0.846962 1.00924 0.796858 0.85322 1.0154 0.878342 0.803222 1.02791 1.04042 1.02207 0.803108 1.02816 0.896902 0.84068 1.03451 1.04672 1.04038 0.896895 0.80955 1.01555 0.802955 0.865399 0.915401 1.02194 0.809367 0.859549 1.02168 0.802908 0.921963 0.859236 0.809208 1.03432 0.902911 0.877938 0.815611 1.02789 0.922081 0.815496 0.871664 1.02799 0.884578 0.984262 0.821676 0.871752 0.909507 0.809319 0.978215 0.878225 0.990431 0.815505 0.86563 0.984168 0.896984 0.815439 0.853101 0.809592 0.903031 0.85948 0.978126 0.815531 0.821974 0.896718 0.871703 0.965675 0.890569 0.821659 0.972024 0.865503 0.784516 0.953052 0.871738 0.903097 0.790616 0.828237 0.959549 0.796941 0.797097 0.959427 0.915778 0.796898 0.965598 0.834433 0.971835 0.909285 0.802998 0.834217 0.965756 0.796784 0.915785 0.846958 1.0033 0.803344 0.928123 0.846627 0.803124 0.997091 0.927936 0.815535 0.996981 0.809562 0.934151 0.840563 0.984247 0.809189 0.846884 0.828068 0.990536 0.821989 0.840444 0.853186 0.821719 1.00923 0.834202 0.809224 0.865482 0.828246 0.990751 0.80314 0.834298 1.00295 0.85942 0.80331 0.977935 0.809437 0.846698 0.852941 0.971772 0.815814 0.840657 0.984322 0.815875 0.88461 0.840659 0.978089 0.809622 0.871712 0.815673 0.859204 0.921668 0.852991 0.878354 0.822089 0.903031 0.852921 0.81576 0.909225 0.884168 0.859211 0.821843 0.865429 0.822122 0.878024 0.915663 0.865543 0.834279 0.890477 0.92821 0.859146 0.828353 0.903071 0.890425 0.828309 0.890787 0.853361 0.89668 0.821773 0.896831 0.859276 0.827887 0.853202 0.828284 0.865796 0.88445 0.827925 0.846699 0.878092 0.834275 0.865434 0.865862 0.828116 0.859185 0.890462 0.884431 0.834142 0.859373 0.897077 0.828164 0.897116 0.903161 0.865789 0.840537 0.878083 0.90923 0.834449 0.884577 0.890577 0.840838 0.865678 0.878357 0.840788 0.915553 0.934612 0.847036 0.890579 0.915837 0.909289 0.834209 0.902979 0.884339 0.834374 0.909624 0.890539 0.921871 0.840817 0.896845 0.840706 0.915863 0.834416 0.940556 0.890494 0.903232 0.840392 0.884185 0.947083 0.90934 0.846662 0.884405 0.928279 0.91555 0.846867 0.878223 0.915421 0.853222 0.89053 0.921764 0.884529 0.852893 0.897047 0.940559 0.846855 0.890446 0.946856 0.852996 0.903141 0.89671 0.859187 0.903197 0.87196 0.909127 0.934573 0.903333 0.909566 0.859625 0.903274 0.921959 0.703224 0.909589 0.897109 0.92803 0.903002 0.890804 0.722026 0.953148 0.722029 0.8971 0.915432 0.859343 0.903339 0.909545 0.721677 0.859374 0.909501 0.921829 0.728203 0.922037 0.846872 0.909342 0.934307 0.840863 0.878292 0.709364 0.927961 0.871918 0.853154 0.728002 0.940489 0.87189 0.859317 0.734543 0.878276 0.959354 0.884504 0.847054 0.728108 0.940526 0.890784 0.740621 0.853295 0.959281 0.884461 0.734372 0.971693 0.871783 0.83452 0.734168 0.878348 0.971957 0.747053 0.871788 0.828321 0.740554 0.884175 0.934603 0.828078 0.759343 0.87829 0.753075 0.884294 0.940465 0.840397 0.759602 0.878089 0.734489 0.903108 0.834172 0.934212 0.740469 0.896825 0.747028 0.878084 0.890439 0.927959 0.753327 0.909609 0.746859 0.946769 0.865652 0.902945 0.753293 0.953118 0.896751 0.865694 0.946954 0.890474 0.884219 0.89085 0.952886 0.877933 0.902978 0.872023 0.896839 0.959354 0.872083 0.897015 0.959593 0.859303 0.902942 0.959503 0.828256 0.84673 0.965852 0.81542 0.96584 0.821995 0.840693 0.940795 0.83454 0.746643 0.840836 0.84062 0.828331 0.934285 0.834336 0.746669 0.822009 0.953196 0.822016 0.853047 0.94047 0.846783 0.815498 0.752929 0.946878 0.815437 0.846892 0.75934 0.947112 0.827975 0.953091 0.822074 0.953088 0.947085 0.828027 0.959507 0.827903 0.753011 0.922117 0.846686 0.747065 0.965529 0.94682 0.847122 0.759409 0.971762 0.840448 0.934505 0.765568 0.978334 0.834279 0.771932 0.940755 0.965551 0.765811 0.971986 0.765569 0.852994 0.921837 0.778211 0.978274 0.859343 0.978138 0.777881 0.971647 0.859255 0.971925 0.771909 0.915745 0.971903 0.784616 0.984276 0.896957 0.990598 0.853306 0.984487 0.777939 0.978055 0.83446 0.990592 0.759321 0.996856 0.984352 0.928304 0.99057 0.834556 1.0032 0.765458 0.909355 0.977897 0.840625 0.784342 0.909507 0.984429 0.990819 0.996858 0.846769 0.77193 0.896893 0.990732 0.777881 0.846921 0.984289 0.959268 0.784418 0.840737 1.00303 0.790714 0.996707 0.822008 1.0033 0.784145 0.996785 0.81558 0.934528 0.796647 1.00303 0.809422 1.00927 1.00937 0.790649 0.809292 0.790472 0.940384 0.953069 0.821724 0.796826 0.965592 0.959415 0.815756 0.790454 0.802992 0.965816 0.797104 0.796871 0.953043 0.965825 0.790422 0.802955 0.946697 0.965811 0.797023 0.803177 0.915582 0.809379 0.797081 0.959586 0.82187 0.90935 0.803126 0.971976 0.81584 0.921674 0.765726 0.98414 0.809292 0.927885 0.759553 0.990765 0.83424 0.915853 0.765823 0.834578 0.978029 0.778113 0.8846 0.828227 0.996695 0.778357 0.846627 0.890447 0.990638 0.772011 0.840619 0.790668 0.884203 0.840739 0.978323 0.77181 0.834484 0.971934 0.828152 0.765657 0.878191 0.815661 0.984473 0.821816 0.77209 0.984361 0.834532 0.784189 0.890504 0.828292 0.784416 0.977894 0.890454 0.777938 0.990752 0.865565 1.0031 0.865758 0.790731 0.865828 0.996725 0.796902 0.871739 0.853026 1.00947 0.80313 0.865861 0.997095 0.803063 0.853372 0.877934 0.809508 1.00932 0.871633 0.809509 0.872115 1.01574 0.87789 0.790824 0.990843 0.865699 0.853133 0.996766 0.79707 0.853124 1.00935 0.859382 0.80321 0.859158 1.00309 0.796938 0.859464 0.872122 1.02205 0.809471 0.871712 0.903255 1.00333 0.815452 1.01567 0.903209 0.865529 0.803169 1.02173 1.01568 0.859186 0.89671 1.02795 1.02807 1.02192 0.890418 1.03416 0.896698 0.884157 1.01585 1.02818 0.903326 0.884384 0.909595 1.01559 0.884563 1.02821 0.877932 0.903178 1.02209 1.03449 1.03439 0.890498 0.884447 1.04081 1.0406 0.715494 0.896685 0.871649 0.877918 0.871662 0.728143 0.890685 0.871717 0.878117 0.752905 0.890768 0.86563 0.740745 0.890474 0.884461 0.878161 1.05301 0.88433 0.734152 0.878024 1.0405 0.753021 0.8782 0.847028 1.04667 1.05936 0.759242 1.05322 0.853244 0.884205 0.852951 1.04706 0.847106 0.772061 1.03423 0.896887 0.859582 1.04059 0.759167 0.89684 0.865536 1.03452 0.921834 0.765551 1.04671 0.859232 0.921747 1.04055 0.752919 0.909158 0.846995 1.02809 0.746965 0.903191 0.840638 1.05915 0.753041 0.92831 1.05298 1.07791 0.771713 1.07199 0.92823 0.840485 1.05333 0.765623 0.890493 0.852886 1.05934 0.765409 0.890781 0.853349 0.75914 0.846728 1.04664 0.902934 0.853069 1.05306 0.89678 0.865685 0.703239 0.896868 0.871952 1.04068 0.734149 0.909526 1.03438 0.865508 0.921735 1.05917 0.740793 0.878285 0.915646 1.0468 0.721787 0.934437 0.877903 1.01557 0.946807 0.727947 0.921937 0.996996 0.872011 0.703292 0.865691 0.940383 1.00914 0.703344 1.02171 0.928164 0.859484 1.01553 0.946855 0.715789 1.00324 0.859232 0.94041 0.709417 0.990784 0.93432 0.871985 0.984245 0.94084 0.709276 0.86553 0.934365 0.971898 0.721658 0.871772 0.947113 0.728303 0.990541 0.946644 0.871853 1.00337 0.746684 0.715682 0.99665 0.740392 0.953102 0.721748 0.997121 0.746785 0.978161 0.978021 0.959419 0.771903 1.02826 0.728134 0.98415 1.02176 0.72791 0.759297 0.715778 0.952897 1.00954 1.04071 1.03448 1.02173 1.01551 1.00915 1.00335 0.984457 1.02207 0.990509 1.0096 1.08427 1.09058 1.06582 1.07821 1.07163 1.07825 1.0717 0.759193 1.06542 1.05333 0.95298 1.0593 0.765694 0.953092 1.0596 0.959184 1.09076 0.734523 0.721826 0.971969 1.08434 0.740587 0.965469 0.740687 1.09702 0.972026 0.734212 1.09695 0.74688 0.978174 1.09039 0.728254 0.96553 0.734473 1.07199 0.734589 0.990445 1.06581 0.746821 0.740411 0.978344 1.07807 0.753364 0.753252 0.903236 1.08439 0.721992 0.903164 1.07208 0.765396 0.934517 0.740851 1.0408 0.909511 0.734419 1.04665 0.909492 0.759577 0.728246 1.03427 0.928039 1.05305 0.753162 0.947004 0.740718 1.04684 0.927947 0.740651 0.778042 1.02834 0.959233 1.01558 0.940534 0.778304 0.953349 0.996728 0.790508 1.0343 0.915504 0.790476 0.915647 1.02802 0.784162 0.934193 1.02203 0.921823 0.784178 1.05308 0.803024 0.922081 1.0468 0.927993 1.06585 0.946819 0.771945 0.946653 1.05953 0.959592 0.784126 1.0529 0.965593 0.778156 0.722075 1.04063 0.965622 0.796695 0.953242 1.02834 0.734196 0.796948 0.940683 1.02212 0.727876 0.959381 0.790566 0.740561 0.959232 1.0346 0.81581 0.734539 0.984255 0.796677 0.73452 0.965867 1.02169 0.809408 0.96582 1.02793 0.815794 0.72796 0.977918 0.821685 0.740742 0.984512 0.821738 0.971814 0.809234 0.953243 0.75915 0.984589 0.815623 0.759303 0.997095 0.809568 0.759308 0.953016 0.990499 0.803067 0.75321 0.965426 0.990739 0.765637 0.802964 0.996958 0.959255 0.771731 0.822043 0.76555 1.00305 0.821906 0.965571 0.75919 0.828177 0.753103 0.971675 0.934172 0.928035 0.977915 0.752941 0.777991 0.940455 0.97211 0.746911 0.940598 0.996769 0.784316 0.759545 0.934323 0.984266 0.934429 0.765739 0.996653 0.777987 0.97833 1.00302 0.778205 0.946788 0.990418 0.790636 0.777905 0.971765 1.0093 0.771915 0.790421 0.790819 0.984135 1.0094 0.784245 0.784436 0.990768 1.01574 0.7843 0.978175 0.797 1.02172 0.790628 0.953362 0.797086 0.765633 0.95962 0.996876 0.771933 0.940436 0.772002 0.984305 0.77201 0.96578 0.778187 1.00303 0.784495 0.959233 0.990715 0.778319 0.771826 0.921858 0.778292 1.00327 0.746681 0.784499 0.915466 1.00308 0.79672 0.902998 1.01545 0.740729 0.92197 1.00925 0.809372 0.747042 0.927991 0.997084 0.753348 0.79692 0.909493 1.0095 0.759558 0.896942 1.00288 0.759183 0.790649 1.00918 0.747092 0.809598 0.884512 0.734481 1.01539 0.809162 0.871815 0.747014 1.0092 0.803173 0.734429 1.02184 0.815633 0.890444 0.