# vtk DataFile Version 3.0
vtk output
ASCII
DATASET UNSTRUCTURED_GRID
POINTS 44490 float
0.00732823 0 0
0.0159079 0 0
0.0186312 0.0124404 0
0.00827733 0.015589 0
0.00732823 0 0
0.53027 0.00875594 0
0.530233 0 0
0.544264 0 0
0.542894 0.0112611 0
0.53027 0.00875594 0
0 0 0
0.00732823 0 0
0.00827733 0.015589 0
0.00642649 0.0174862 0
0 0.0178773 0
0 0 0
0.542894 0.0112611 0
0.544264 0 0
0.554964 0 0
0.556332 0.0089077 0
0.544296 0.0140466 0
0.544204 0.014024 0
0.542894 0.0112611 0
0.0159079 0 0
0.0293744 0 0
0.0264233 0.0124136 0
0.0203283 0.0133048 0
0.0186312 0.0124404 0
0.0159079 0 0
0.544296 0.0140466 0
0.556332 0.0089077 0
0.560858 0.0124243 0
0.561012 0.0188508 0
0.55325 0.0240986 0
0.544296 0.0140466 0
0.0264233 0.0124136 0
0.0293744 0 0
0.0389813 0 0
0.0393183 0.0045659 0
0.0340947 0.0140574 0
0.0299144 0.0147508 0
0.0264233 0.0124136 0
0.556332 0.0089077 0
0.554964 0 0
0.569298 0 0
0.568917 0.00855568 0
0.560858 0.0124243 0
0.556332 0.0089077 0
0 0.0178773 0
0.00642649 0.0174862 0
0.0113912 0.0260103 0
0.00782551 0.0322906 0
0 0.0324382 0
0 0.0178773 0
0.536488 0.022459 0
0.544204 0.014024 0
0.544296 0.0140466 0
0.55325 0.0240986 0
0.552547 0.0272423 0
0.543127 0.0302755 0
0.536488 0.022459 0
0.00642649 0.0174862 0
0.00827733 0.015589 0
0.0186312 0.0124404 0
0.0203283 0.0133048 0
0.0193998 0.0258193 0
0.0113912 0.0260103 0
0.00642649 0.0174862 0
0.53053 0.0368077 0
0.52778 0.0319545 0
0.534974 0.0224784 0
0.536488 0.022459 0
0.543127 0.0302755 0
0.541564 0.0378376 0
0.53053 0.0368077 0
0.00782551 0.0322906 0
0.0113912 0.0260103 0
0.0193998 0.0258193 0
0.0217703 0.0276802 0
0.0176055 0.0393279 0
0.0130122 0.0403555 0
0.00782551 0.0322906 0
0.0193998 0.0258193 0
0.0203283 0.0133048 0
0.0264233 0.0124136 0
0.0299144 0.0147508 0
0.0286966 0.026405 0
0.0272058 0.0277206 0
0.0217703 0.0276802 0
0.0193998 0.0258193 0
0.55325 0.0240986 0
0.561012 0.0188508 0
0.568139 0.0233273 0
0.56789 0.0293081 0
0.557428 0.0340779 0
0.552547 0.0272423 0
0.55325 0.0240986 0
0.505031 0.0488889 0
0.506138 0.0440271 0
0.516356 0.0416649 0
0.52069 0.046382 0
0.518309 0.0542001 0
0.512136 0.056705 0
0.505031 0.0488889 0
0.503716 0.0311506 0
0.506891 0.0289685 0
0.51736 0.0348179 0
0.516356 0.0416649 0
0.506138 0.0440271 0
0.502619 0.0395964 0
0.503716 0.0311506 0
0.0113318 0.568565 0
0.00516248 0.563986 0
0.0115223 0.552734 0
0.0193399 0.556526 0
0.0211838 0.55969 0
0.0211538 0.560236 0
0.0113318 0.568565 0
0.516356 0.0416649 0
0.51736 0.0348179 0
0.521653 0.0311344 0
0.52778 0.0319545 0
0.53053 0.0368077 0
0.526462 0.0455191 0
0.52069 0.046382 0
0.516356 0.0416649 0
0.0393183 0.0045659 0
0.0389813 0 0
0.0538672 0 0
0.0513757 0.0136039 0
0.0498374 0.0143657 0
0.0393183 0.0045659 0
0 0.546666 0
0.010472 0.550919 0
0.0115223 0.552734 0
0.00516248 0.563986 0
0 0.56421 0
0 0.546666 0
0.496946 0.0532403 0
0.505031 0.0488889 0
0.512136 0.056705 0
0.510033 0.0620041 0
0.500677 0.06389 0
0.495985 0.0578909 0
0.496946 0.0532403 0
0.0193399 0.556526 0
0.025583 0.543986 0
0.0298803 0.543795 0
0.0312484 0.544597 0
0.0343303 0.554861 0
0.0211838 0.55969 0
0.0193399 0.556526 0
0.525358 0.0604398 0
0.534683 0.0558752 0
0.536261 0.0571203 0
0.53884 0.0665653 0
0.534729 0.0713143 0
0.528056 0.0712828 0
0.524415 0.0671356 0
0.525358 0.0604398 0
0.0269023 0.570306 0
0.0211538 0.560236 0
0.0211838 0.55969 0
0.0343303 0.554861 0
0.0350597 0.555367 0
0.0359379 0.566181 0
0.0269023 0.570306 0
0.52069 0.046382 0
0.526462 0.0455191 0
0.534074 0.051937 0
0.534683 0.0558752 0
0.525358 0.0604398 0
0.518309 0.0542001 0
0.52069 0.046382 0
0.0115223 0.552734 0
0.010472 0.550919 0
0.0176616 0.539356 0
0.025583 0.543986 0
0.0193399 0.556526 0
0.0115223 0.552734 0
0.512136 0.056705 0
0.518309 0.0542001 0
0.525358 0.0604398 0
0.524415 0.0671356 0
0.514146 0.0690995 0
0.510033 0.0620041 0
0.512136 0.056705 0
0.0310509 0.532362 0
0.0364244 0.52933 0
0.040905 0.530431 0
0.0421511 0.541779 0
0.0312484 0.544597 0
0.0298803 0.543795 0
0.0310509 0.532362 0
0.546276 0.511484 0
0.554715 0.503784 0
0.560844 0.508738 0
0.56066 0.517298 0
0.552493 0.521474 0
0.548436 0.519195 0
0.546276 0.511484 0
0.526462 0.0455191 0
0.53053 0.0368077 0
0.541564 0.0378376 0
0.54363 0.0413842 0
0.534074 0.051937 0
0.526462 0.0455191 0
0.546258 0.0424936 0
0.557134 0.0361552 0
0.563134 0.0447333 0
0.560898 0.0490911 0
0.550924 0.0514624 0
0.546258 0.0424936 0
0.0449127 0.527667 0
0.0531079 0.530544 0
0.0520593 0.540595 0
0.0447971 0.543586 0
0.0421511 0.541779 0
0.040905 0.530431 0
0.0449127 0.527667 0
0.537262 0.525272 0
0.548436 0.519195 0
0.552493 0.521474 0
0.55391 0.530711 0
0.545558 0.534761 0
0.539493 0.531996 0
0.537262 0.525272 0
0.541564 0.0378376 0
0.543127 0.0302755 0
0.552547 0.0272423 0
0.557428 0.0340779 0
0.557134 0.0361552 0
0.546258 0.0424936 0
0.54363 0.0413842 0
0.541564 0.0378376 0
0.0456209 0.553943 0
0.0447971 0.543586 0
0.0520593 0.540595 0
0.0600124 0.544189 0
0.0613298 0.549536 0
0.0456606 0.553981 0
0.0456209 0.553943 0
0.536261 0.0571203 0
0.534683 0.0558752 0
0.534074 0.051937 0
0.54363 0.0413842 0
0.546258 0.0424936 0
0.550924 0.0514624 0
0.550094 0.0536127 0
0.536261 0.0571203 0
0.525213 0.527749 0
0.534623 0.523826 0
0.537262 0.525272 0
0.539493 0.531996 0
0.529608 0.541199 0
0.529108 0.541141 0
0.524578 0.537129 0
0.525213 0.527749 0
0.0340947 0.0140574 0
0.0393183 0.0045659 0
0.0498374 0.0143657 0
0.0460857 0.0203079 0
0.0435196 0.0210355 0
0.0340947 0.0140574 0
0.536261 0.0571203 0
0.550094 0.0536127 0
0.552527 0.0608672 0
0.546859 0.0679992 0
0.53884 0.0665653 0
0.536261 0.0571203 0
0.0520593 0.540595 0
0.0531079 0.530544 0
0.058974 0.527891 0
0.0666767 0.535752 0
0.0600124 0.544189 0
0.0520593 0.540595 0
0.0513757 0.0136039 0
0.0538672 0 0
0.0601085 0 0
0.0641874 0.0108214 0
0.0578657 0.0150504 0
0.0513757 0.0136039 0
0.552493 0.521474 0
0.56066 0.517298 0
0.56717 0.521607 0
0.565899 0.530793 0
0.558681 0.533497 0
0.55391 0.530711 0
0.552493 0.521474 0
0.060513 0.0256806 0
0.0578657 0.0150504 0
0.0641874 0.0108214 0
0.0710164 0.0130915 0
0.067433 0.0247528 0
0.0641601 0.0266977 0
0.060513 0.0256806 0
0.0350597 0.555367 0
0.0456209 0.553943 0
0.0456606 0.553981 0
0.0484459 0.561439 0
0.0434743 0.569427 0
0.0359379 0.566181 0
0.0350597 0.555367 0
0.550924 0.0514624 0
0.560898 0.0490911 0
0.566226 0.0596967 0
0.562838 0.0638471 0
0.552527 0.0608672 0
0.550094 0.0536127 0
0.550924 0.0514624 0
0.498486 0.532515 0
0.509059 0.529101 0
0.514103 0.538917 0
0.512604 0.541917 0
0.500618 0.545916 0
0.498486 0.532515 0
0.568917 0.00855568 0
0.569298 0 0
0.583292 0 0
0.581137 0.00925807 0
0.574646 0.0128089 0
0.568917 0.00855568 0
0.0272058 0.0277206 0
0.0286966 0.026405 0
0.0399749 0.0270342 0
0.0425302 0.0345026 0
0.039603 0.0380922 0
0.0306506 0.0375654 0
0.0272058 0.0277206 0
0.0312484 0.544597 0
0.0421511 0.541779 0
0.0447971 0.543586 0
0.0456209 0.553943 0
0.0350597 0.555367 0
0.0343303 0.554861 0
0.0312484 0.544597 0
0.561012 0.0188508 0
0.560858 0.0124243 0
0.568917 0.00855568 0
0.574646 0.0128089 0
0.574101 0.0194437 0
0.568139 0.0233273 0
0.561012 0.0188508 0
0.504813 0.556071 0
0.49988 0.54706 0
0.500618 0.545916 0
0.512604 0.541917 0
0.517213 0.553602 0
0.513966 0.556177 0
0.504813 0.556071 0
0.0299144 0.0147508 0
0.0340947 0.0140574 0
0.0435196 0.0210355 0
0.0399749 0.0270342 0
0.0286966 0.026405 0
0.0299144 0.0147508 0
0.0456606 0.553981 0
0.0613298 0.549536 0
0.0616418 0.549882 0
0.0606087 0.561613 0
0.0577553 0.563177 0
0.0484459 0.561439 0
0.0456606 0.553981 0
0.583292 0 0
0.58829 0 0
0.595258 0.0127681 0
0.592429 0.0165019 0
0.589564 0.0171848 0
0.581137 0.00925807 0
0.583292 0 0
0.0399749 0.0270342 0
0.0435196 0.0210355 0
0.0460857 0.0203079 0
0.0538011 0.0284498 0
0.0514843 0.03479 0
0.0425302 0.0345026 0
0.0399749 0.0270342 0
0.514103 0.538917 0
0.524578 0.537129 0
0.529108 0.541141 0
0.520735 0.553654 0
0.517213 0.553602 0
0.512604 0.541917 0
0.514103 0.538917 0
0.56789 0.0293081 0
0.568139 0.0233273 0
0.574101 0.0194437 0
0.583788 0.0255102 0
0.58385 0.0259995 0
0.576765 0.0342236 0
0.573289 0.0345262 0
0.56789 0.0293081 0
0.0726815 0.519721 0
0.0691255 0.510677 0
0.0764309 0.503657 0
0.0776815 0.503966 0
0.0857078 0.513579 0
0.0857104 0.513586 0
0.0738887 0.520396 0
0.0726815 0.519721 0
0.0460857 0.0203079 0
0.0498374 0.0143657 0
0.0513757 0.0136039 0
0.0578657 0.0150504 0
0.060513 0.0256806 0
0.0538011 0.0284498 0
0.0460857 0.0203079 0
0.529108 0.541141 0
0.529608 0.541199 0
0.537385 0.548449 0
0.53693 0.554386 0
0.526194 0.558126 0
0.520735 0.553654 0
0.529108 0.541141 0
0.583788 0.0255102 0
0.589564 0.0171848 0
0.592429 0.0165019 0
0.59877 0.0240736 0
0.597266 0.0304158 0
0.592487 0.0332327 0
0.58385 0.0259995 0
0.583788 0.0255102 0
0.539493 0.531996 0
0.545558 0.534761 0
0.546446 0.544788 0
0.537385 0.548449 0
0.529608 0.541199 0
0.539493 0.531996 0
0.574646 0.0128089 0
0.581137 0.00925807 0
0.589564 0.0171848 0
0.583788 0.0255102 0
0.574101 0.0194437 0
0.574646 0.0128089 0
0.0632581 0.497301 0
0.0668215 0.495407 0
0.0712321 0.496405 0
0.0764309 0.503657 0
0.0691255 0.510677 0
0.0629393 0.508395 0
0.0615479 0.506057 0
0.0632581 0.497301 0
0.58829 0 0
0.603209 0 0
0.603018 0.0102801 0
0.595258 0.0127681 0
0.58829 0 0
0.0531485 0.0375236 0
0.0514843 0.03479 0
0.0538011 0.0284498 0
0.060513 0.0256806 0
0.0641601 0.0266977 0
0.0653934 0.0367908 0
0.0634188 0.0388449 0
0.0531485 0.0375236 0
0.545558 0.534761 0
0.55391 0.530711 0
0.558681 0.533497 0
0.5589 0.543773 0
0.551248 0.547346 0
0.546446 0.544788 0
0.545558 0.534761 0
0.609604 0.0195733 0
0.606966 0.0128652 0
0.618349 0.00476703 0
0.622946 0.0116841 0
0.620649 0.0180692 0
0.609604 0.0195733 0
0 0.0324382 0
0.00782551 0.0322906 0
0.0130122 0.0403555 0
0.0108025 0.0445804 0
0 0.0451307 0
0 0.0324382 0
0.0930926 0.496967 0
0.0976345 0.498605 0
0.101953 0.506613 0
0.101929 0.506936 0
0.0911363 0.514702 0
0.087558 0.514696 0
0.0857104 0.513586 0
0.0857078 0.513579 0
0.0930926 0.496967 0
0.526194 0.558126 0
0.53693 0.554386 0
0.541534 0.559673 0
0.54028 0.566543 0
0.532673 0.570191 0
[...]
CELL_DATA 6400
FIELD FieldData 3
weight 1 6400 float
 0.0525277 0.0545583 0.0524778 0.0545482 0.0525911 0.0545915 0.0526768 0.0545283 0.0525259 0.0546213 0.052586 0.0546648 0.0526327 0.0526591 0.05462 0.0547351 0.0547005 0.0521897 0.0546919 0.0528012 0.0521524 0.0547756 0.0523319 0.0547763 0.0523089 0.0547417 0.0522938 0.0547831 0.0524702 0.0545565 0.0547132 0.0546946 0.0525688 0.0544978 0.0546605 0.0525504 0.0547303 0.054477 0.0527819 0.0547709 0.0526419 0.0528719 0.0544859 0.0529493 0.0523788 0.054737 0.0544511 0.0545024 0.0527887 0.0524263 0.0545618 0.0543775 0.0527579 0.0525256 0.0545022 0.05285 0.0544057 0.0545962 0.0528776 0.0528908 0.0543778 0.0545559 0.0544394 0.0545453 0.0528554 0.0544843 0.0529558 0.0544297 0.0544729 0.0525792 0.053045 0.0543204 0.0527025 0.0530147 0.0527184 0.0544606 0.0527372 0.0543648 0.052756 0.054559 0.0526721 0.0543477 0.0545193 0.0526221 0.0529607 0.0545388 0.0528644 0.0545177 0.0528749 0.052786 0.0546555 0.0530535 0.0545767 0.0546584 0.0528956 0.0546117 0.0531685 0.0528881 0.054604 0.0546427 0.0528151 0.0547012 0.0545463 0.052995 0.0532672 0.0547039 0.0544625 0.0529804 0.0531222 0.054688 0.0545085 0.0530329 0.0546369 0.0530047 0.0529394 0.0545003 0.0545947 0.0530033 0.0531535 0.0530803 0.0545752 0.0544529 0.052779 0.0531508 0.0545684 0.0544283 0.0530419 0.0526646 0.0544713 0.0546628 0.0543754 0.0530504 0.0544057 0.0543763 0.0546236 0.0530906 0.0544263 0.0546277 0.0531724 0.0543174 0.0532727 0.0543423 0.0548148 0.0532267 0.054288 0.054827 0.0531501 0.0543789 0.0533366 0.0543424 0.0548923 0.0533031 0.054288 0.0548601 0.0532614 0.0548722 0.0542912 0.0532349 0.054812 0.0542486 0.0533317 0.0548371 0.0542493 0.0548074 0.053074 0.0547871 0.0543062 0.0532006 0.0548722 0.0531331 0.0548394 0.0543108 0.053081 0.05487 0.054241 0.0531273 0.0549309 0.054232 0.0531628 0.0549059 0.0532305 0.0549088 0.0542 0.0549395 0.053332 0.0541479 0.0532564 0.0549763 0.0542383 0.0533831 0.0549636 0.0542895 0.0532811 0.0549475 0.0542577 0.0548966 0.0533541 0.0541367 0.0549038 0.0534377 0.0541707 0.0549342 0.0541991 0.0534408 0.0549539 0.0540293 0.0526911 0.0547428 0.054114 0.0527981 0.0547441 0.052794 0.0540432 0.0548313 0.0547889 0.0528967 0.0548117 0.0527134 0.0547686 0.0528119 0.0547164 0.0528724 0.0547254 0.0529144 0.0546828 0.0529517 0.0547804 0.053007 0.0528681 0.0530775 0.0547305 0.0529928 0.0547823 0.0526043 0.0530833 0.0548719 0.0526941 0.0548561 0.0531574 0.0528153 0.0548644 0.0528497 0.0527571 0.0549327 0.0527822 0.0529096 0.052972 0.054895 0.0530167 0.0528896 0.0549057 0.0548155 0.0528863 0.0530799 0.0548263 0.0528134 0.0529068 0.0547873 0.0529128 0.0529763 0.0548735 0.052077 0.0530624 0.0548348 0.0520678 0.0529699 0.0521876 0.0548379 0.0531452 0.0521801 0.0543943 0.0520167 0.0530459 0.0544512 0.0519639 0.0544141 0.0530211 0.0521833 0.0543553 0.0532118 0.0522798 0.0544546 0.053139 0.0524277 0.054501 0.0544131 0.053127 0.0525041 0.0544191 0.0522427 0.0543198 0.0531432 0.0543515 0.052303 0.0532068 0.0542587 0.0523484 0.054278 0.0532769 0.0523817 0.054398 0.0532204 0.0518826 0.0543579 0.0533082 0.0518727 0.0543334 0.0533241 0.0519931 0.0545137 0.0534036 0.0521127 0.0539395 0.0545773 0.0535061 0.0518176 0.0544687 0.0539216 0.0533738 0.0517476 0.0533857 0.0519563 0.0539442 0.0545879 0.0540009 0.0535485 0.0545307 0.0519313 0.0540799 0.0534619 0.0545542 0.0540983 0.0520647 0.0544578 0.0532213 0.0540293 0.0521936 0.0544961 0.0532579 0.0539575 0.0544194 0.0520516 0.0533321 0.0540025 0.0545264 0.0521769 0.0533086 0.0539336 0.054461 0.0522156 0.0532819 0.0542178 0.0542266 0.0533579 0.0542187 0.0526137 0.0541971 0.0541688 0.053397 0.0526761 0.0541516 0.054162 0.0540891 0.0534692 0.052728 0.054297 0.0541319 0.0534217 0.0525476 0.0543273 0.0541453 0.0542388 0.0524668 0.0536151 0.0542006 0.0542179 0.0525806 0.0535487 0.054156 0.0541132 0.0527994 0.0540426 0.0540991 0.0534531 0.0528461 0.0540542 0.0540555 0.0535106 0.0540638 0.0529432 0.0540084 0.0539936 0.0535869 0.0527431 0.0541013 0.0541959 0.0534087 0.0540727 0.0527761 0.0539934 0.0541382 0.0534103 0.0528467 0.0540378 0.0534924 0.0540746 0.052407 0.0534805 0.0539965 0.0543757 0.0524689 0.0533988 0.0542997 0.0539122 0.0525124 0.0534721 0.0539384 0.0542638 0.0535534 0.0522894 0.0543437 0.053854 0.0535389 0.0544127 0.053946 0.0536087 0.0522651 0.0536778 0.0543677 0.0539009 0.0523898 0.0536221 0.0542079 0.0535622 0.0523781 0.0541329 0.0537279 0.0524252 0.0536833 0.0541567 0.0526477 0.0535035 0.0542969 0.0526586 0.0534409 0.0538935 0.0536088 0.0527566 0.0538538 0.0535446 0.0525449 0.0543108 0.0544053 0.0535434 0.0525357 0.0536218 0.0542488 0.0544209 0.0537243 0.0526778 0.0542423 0.0536346 0.0546705 0.0544822 0.0537792 0.0533544 0.0546467 0.0543755 0.0537159 0.0532338 0.0546235 0.0536803 0.0543196 0.0547256 0.0534374 0.0542892 0.0538336 0.0547026 0.0532236 0.0543481 0.0537696 0.0546707 0.0537523 0.0543039 0.0533359 0.0546466 0.0537601 0.0545854 0.0536925 0.0543217 0.0535298 0.0538324 0.0542236 0.0538295 0.0545525 0.054237 0.053608 0.0537956 0.0542384 0.0544914 0.0535257 0.0538666 0.0542656 0.0546071 0.0539361 0.0536242 0.0545601 0.0542026 0.0538873 0.0534287 0.0538985 0.0534318 0.0541455 0.0539508 0.0541803 0.0547387 0.0539543 0.0541453 0.0542042 0.0539848 0.0535141 0.0541603 0.0540362 0.0540849 0.0532902 0.054053 0.0548 0.0541233 0.0538919 0.0533083 0.0547216 0.0540739 0.0538788 0.0531767 0.0540191 0.0538226 0.0530888 0.0539492 0.0542422 0.0547724 0.0531681 0.0539591 0.0541864 0.0532564 0.0547833 0.0539158 0.0533975 0.0546237 0.0539694 0.0542002 0.0534703 0.0540591 0.0533484 0.0541736 0.0546811 0.0540092 0.0541164 0.0533782 0.0546175 0.054111 0.0541044 0.0545799 0.0540565 0.054681 0.0541108 0.0537118 0.0541032 0.0540525 0.0540192 0.0537662 0.0540428 0.0547306 0.0536853 0.0541648 0.0540487 0.0535954 0.0535961 0.0539684 0.0537117 0.0535269 0.054632 0.0539807 0.053612 0.0546964 0.0540954 0.0539058 0.0536802 0.0544437 0.0540325 0.0536645 0.0538071 0.0539634 0.0536814 0.0538729 0.0540195 0.0543669 0.053618 0.0539526 0.0544352 0.0537491 0.053989 0.0539707 0.0545025 0.0537576 0.0537519 0.0545038 0.0537721 0.0538847 0.0544526 0.0538415 0.0538053 0.0538913 0.0538679 0.0538586 0.0538831 0.0543966 0.0538521 0.0538129 0.0543305 0.05393 0.053816 0.0541047 0.0535643 0.0542887 0.0538907 0.0540589 0.0539401 0.0536691 0.0540874 0.0544296 0.0536863 0.0536459 0.0543554 0.054002 0.0538188 0.0534708 0.0539434 0.053757 0.0543107 0.053555 0.0540305 0.0545471 0.0536734 0.0534772 0.0539823 0.053587 0.0539904 0.0537392 0.0544949 0.053934 0.0537546 0.0537684 0.0545092 0.0538231 0.0538852 0.0536987 0.0546025 0.0538871 0.0539569 0.0537842 0.0539577 0.0538974 0.0536071 0.0538926 0.054573 0.0536916 0.0537941 0.0539699 0.0545479 0.0530446 0.0538388 0.0539272 0.0544516 0.0539775 0.053795 0.052944 0.0538785 0.0540291 0.0543818 0.0538468 0.0540037 0.0531482 0.0538324 0.0540519 0.0543395 0.0530064 0.0537709 0.0541247 0.0544093 0.0528869 0.0537394 0.054147 0.0544745 0.0529949 0.0536717 0.0541066 0.0530946 0.0531946 0.0537003 0.0541922 0.0532474 0.0541798 0.0543699 0.0539343 0.0533033 0.0538648 0.0542172 0.0544387 0.0533772 0.053904 0.0542602 0.0530639 0.0538215 0.0540237 0.0532691 0.0537955 0.0541652 0.0531704 0.0537593 0.0540851 0.054998 0.052842 0.0538428 0.054988 0.0541106 0.0537741 0.0528463 0.0540376 0.052913 0.0537158 0.0541006 0.0550082 0.054175 0.0529505 0.0536893 0.0550167 0.0541776 0.0537417 0.0527228 0.0550595 0.0536303 0.0528089 0.0542453 0.0530613 0.0536641 0.0542467 0.0550272 0.0537704 0.0530633 0.0550372 0.0543118 0.0536857 0.0531691 0.0536695 0.0549823 0.0529658 0.0543022 0.0535753 0.0530044 0.0542376 0.0536692 0.0549883 0.0533888 0.0543083 0.0550231 0.0535775 0.0535009 0.0529281 0.0550246 0.0535799 0.0532806 0.0528419 0.0550892 0.0533146 0.0535715 0.0550489 0.0529711 0.0534024 0.0535492 0.053398 0.0530364 0.0550703 0.0534702 0.0528654 0.0534999 0.0529361 0.0534834 0.0551219 0.0535922 0.0529844 0.0550999 0.0530274 0.0533972 0.0550768 0.0535879 0.0535008 0.0531595 0.0538592 0.053507 0.0550473 0.0530731 0.0550516 0.0532051 0.0538788 0.0550257 0.0532274 0.0532345 0.0537518 0.0551069 0.0532231 0.0533366 0.0537159 0.0531455 0.0531186 0.0531223 0.0550844 0.0537777 0.0531131 0.0550857 0.0532826 0.0538567 0.0532453 0.0532172 0.0549634 0.0538159 0.0534236 0.0529028 0.0549348 0.0529659 0.0538348 0.0534383 0.0530357 0.0537186 0.0529258 0.0537637 0.0532425 0.0549135 0.0529968 0.0537265 0.0549444 0.0533419 0.0530505 0.0549542 0.0531147 0.0536679 0.0533412 0.0549908 0.0531897 0.0516542 0.0536603 0.0532508 0.0535993 0.0549918 0.0517586 0.0531978 0.0549699 0.0535791 0.0518365 0.053124 0.054882 0.0516774 0.0534944 0.0549173 0.0515576 0.0533031 0.0535504 0.0517681 0.0535994 0.0533102 0.0519756 0.0536668 0.053391 0.0548724 0.0536086 0.0532966 0.0549366 0.0520995 0.0534692 0.053357 0.0549041 0.0521048 0.0534271 0.0535619 0.0549116 0.0518266 0.0534936 0.0534888 0.0519959 0.0534709 0.0538758 0.0550364 0.0519051 0.0550085 0.053533 0.0537792 0.0519143 0.0550625 0.053814 0.0536106 0.0520758 0.0550378 0.0514921 0.0536712 0.051698 0.0536653 0.0537162 0.0516197 0.0550107 0.0535604 0.0537266 0.0549827 0.0514915 0.0536532 0.0536127 0.051382 0.0549355 0.0537911 0.0536616 0.0549507 0.0515998 0.0536905 0.0533875 0.0515103 0.0537495 0.0517399 0.0533308 0.05498 0.0536113 0.053476 0.0550298 0.0519602 0.0535291 0.0536622 0.0518356 0.05496 0.0533567 0.0535829 0.0517329 0.0534299 0.0535667 0.0516502 0.0535246 0.0536053 0.0551334 0.0535532 0.0518018 0.0535485 0.0551227 0.0534377 0.0536027 0.0551427 0.0522807 0.0535088 0.0536736 0.0551581 0.0534071 0.0522081 0.0534587 0.0536007 0.0523527 0.0534985 0.0522027 0.0536847 0.053527 0.0521226 0.0551757 0.0537199 0.0533862 0.0551565 0.0530148 0.0522674 0.0551335 0.0529398 0.0533402 0.0524515 0.0530711 0.0534486 0.0526081 0.0531112 0.0529645 0.0550964 0.0534167 0.0524994 0.0530261 0.0551139 0.0534158 0.0523665 0.0551485 0.0530811 0.0534418 0.0551313 0.0531525 0.0524666 0.0533368 0.0531945 0.0533228 0.0551181 0.0519951 0.0532708 0.0533125 0.0551796 0.0533153 0.0520961 0.0551745 0.0532325 0.0531604 0.0521339 0.0532991 0.0519376 0.0533553 0.0519448 0.0551621 0.0532313 0.0534084 0.0520519 0.0530317 0.0532702 0.0521825 0.0551732 0.0529612 0.0532816 0.0522392 0.0531552 0.0532158 0.0523263 0.0530715 0.0523854 0.0531106 0.0529546 0.0521192 0.0530267 0.0531219 0.0522687 0.0551793 0.0531069 0.0531056 0.0513069 0.0551706 0.0531088 0.0514242 0.0551476 0.053006 0.0514382 0.0532072 0.055136 0.0513472 0.0530041 0.0532304 0.0512272 0.0531785 0.0511442 0.0551479 0.0533334 0.0531651 0.0513471 0.0532774 0.055161 0.0531905 0.0531829 0.0512513 0.0551602 0.0529688 0.0515449 0.0532463 0.0530137 0.0516566 0.0533182 0.0550969 0.0530807 0.0516222 0.0533654 0.0529712 0.055059 0.0514908 0.053074 0.0534171 0.055105 0.0515018 0.0550816 0.0533613 0.0533612 0.0510615 0.0550944 0.0533282 0.0510947 0.0534341 0.0533026 0.0535036 0.0512125 0.0550467 0.0532638 0.0509692 0.0533869 0.0532229 0.0535651 0.0510195 0.0549776 0.05335 0.0549998 0.0535677 0.0511336 0.0550213 0.0534731 0.0532798 0.0512633 0.0532404 0.0515012 0.053592 0.0550634 0.0531913 0.0513551 0.0536642 0.055048 0.0531352 0.0514366 0.0550014 0.0537528 0.0531621 0.0551254 0.0512219 0.0536399 0.0531441 0.0551079 0.0512423 0.0536967 0.0530556 0.0513298 0.0530892 0.0537187 0.0551016 0.0517982 0.0534235 0.0551243 0.0529271 0.0517415 0.0535771 0.0551371 0.0528795 0.0519187 0.0535038 0.0530043 0.0518125 0.0534413 0.0530797 0.0516539 0.0550984 0.0535175 0.0530333 0.0550733 0.0516498 0.0529907 0.0550235 0.0518 0.053557 0.0550592 0.0529575 0.0519734 0.0537172 0.0521977 0.0528629 0.0536381 0.0520738 0.0550737 0.0529129 0.0537921 0.0518344 0.0550733 0.0536951 0.0518895 0.0537109 0.0550395 0.0537322 0.0519797 0.0536453 0.052054 0.0536891 0.0537895 0.0515815 0.0550281 0.0536341 0.0537255 0.0514899 0.0548572 0.0535704 0.0538171 0.0516818 0.0535768 0.0537976 0.0517198 0.053529 0.0537353 0.0514647 0.054828 0.0536379 0.0538052 0.0548051 0.0535732 0.0538837 0.0515007 0.0548846 0.0538683 0.0535798 0.051757 0.0548303 0.0539761 0.053515 0.0518906 0.0539041 0.0534722 0.0547756 0.0516277 0.05472 0.0534725 0.0540522 0.0517693 0.0534123 0.0547493 0.0539913 0.0539461 0.0534671 0.0516531 0.0540534 0.0534214 0.0525962 0.0546761 0.0541018 0.0534141 0.0527056 0.0546618 0.0533547 0.05375 0.0527075 0.0547975 0.0538172 0.0533023 0.0525103 0.0539012 0.0534107 0.0525934 0.0547093 0.0533594 0.0537843 0.0526212 0.0547417 0.0533115 0.0538814 0.054902 0.0528543 0.0532366 0.0538368 0.054851 0.0532942 0.0539655 0.0528709 0.0527614 0.0540281 0.0534691 0.0527335 0.0540981 0.0549189 0.0534712 0.0540302 0.0548693 0.0528898 0.0533615 0.0540173 0.0548902 0.052776 0.0534846 0.0548167 0.0539635 0.0525127 0.0547696 0.0533933 0.0540781 0.0525268 0.054785 0.0541197 0.0547357 0.0533126 0.0548355 0.0541715 0.0548151 0.0533826 0.0541757 0.05477 0.0542332 0.0532812 0.0543015 0.0546168 0.0532186 0.0542432 0.0545498 0.0532923 0.0546407 0.0543634 0.0533477 0.0545729 0.0532705 0.0543806 0.0532266 0.0545791 0.0543009 0.0532077 0.0545027 0.0543658 0.0531084 0.0544522 0.0541613 0.0531325 0.0542314 0.0531847 0.0542405 0.0531878 0.0542968 0.0543893 0.0531146 0.0541554 0.0545188 0.0530978 0.0542258 0.0545144 0.0530406 0.0542948 0.0544562 0.0543499 0.053015 0.054425 0.0532197 0.0546825 0.0544044 0.0546276 0.0532808 0.0546398 0.0543579 0.0532248 0.0547364 0.0544698 0.0547039 0.0530885 0.0544389 0.0531396 0.0531178 0.0538223 0.0546793 0.0531824 0.0546252 0.0538725 0.0531122 0.0545732 0.0539453 0.0545192 0.0531753 0.0537832 0.0530541 0.0538623 0.0529809 0.0539421 0.0544633 0.0530343 0.0539984 0.0545719 0.0529495 0.0540198 0.0545286 0.0530007 0.0540865 0.0530232 0.0549322 0.0541343 0.0529076 0.0541476 0.052851 0.054062 0.0549649 0.0549103 0.0541293 0.0528284 0.0549897 0.0538662 0.0549602 0.0527754 0.053973 0.0529484 0.0539354 0.0528544 0.0549189 0.0548666 0.052874 0.0548791 0.0538436 0.0528348 0.0548323 0.0539871 0.0547877 0.0527281 0.0539188 0.0527582 0.0540512 0.0548497 0.0530812 0.0540556 0.0547963 0.0529905 0.0541301 0.0549958 0.054954 0.0530155 0.0540718 0.0549563 0.0529288 0.054144 0.0528907 0.0528427 0.054997 0.0542238 0.052927 0.0541943 0.0549618 0.0542658 0.0529543 0.0548994 0.0543007 0.0542132 0.0528603 0.0548586 0.054337 0.052848 0.0548083 0.0527871 0.0543786 0.054875 0.0543674 0.0527511 0.0549142 0.0526968 0.0544576 0.0527978 0.0544072 0.054815 0.0544342 0.0527593 0.0547469 0.0544784 0.0546996 0.0526827 0.0547467 0.0545085 0.0546836 0.0525907 0.0546347 0.0542682 0.0545798 0.0542 0.0526277 0.0545082 0.0543344 0.0526687 0.054286 0.0527083 0.0545737 0.0542406 0.0525984 0.05463 0.0543645 0.0545714 0.052531 0.0543091 0.0547644 0.0525606 0.0544055 0.0544823 0.0547091 0.0524746 0.0547097 0.0544377 0.0539497 0.0548069 0.0545101 0.0547646 0.053867 0.0540196 0.0540281 0.0547089 0.0541485 0.0546465 0.0540855 0.0540923 0.0546391 0.05411 0.0545857 0.0541711 0.0546495 0.054202 0.0541341 0.0542091 0.0545821 0.0542109 0.0539373 0.0542605 0.0540024 0.0542644 0.0538737 0.0541122 0.0539527 0.0541978 0.0540234 0.0542075 0.0539815 0.0542346 0.0538978 0.053815 0.0541644 0.0537518 0.0542908 0.0537418 0.0542631 0.0538175 0.0542688 0.053907 0.0543441 0.0537684 0.0538436 0.0543223 0.0543382 0.0540742 0.0539706 0.0543933 0.0540291 0.054411 0.054247 0.0541036 0.054316 0.0543019 0.0541877 0.054311 0.0543551 0.0541222 0.0543831 0.0540446 0.0543943 0.053911 0.0544154 0.0538426 0.0543487 0.0539891 0.0543892 0.0539914 0.0544057 0.0538087 0.0539029 0.054449 0.0538764 0.0544457 0.0539163 0.0536601 0.0544487 0.0536787 0.0544782 0.0536105 0.0538467 0.0535126 0.0544599 0.0535928 0.0538095 0.0543906 0.0537671 0.0544966 0.053703 0.0536643 0.0544366 0.0536393 0.0537383 0.0534689 0.054492 0.0534402 0.0537793 0.0545113 0.053382 0.0537525 0.0545064 0.0533674 0.0536808 0.0535579 0.0545114 0.053547 0.0537583 0.0545644 0.0534583 0.0545445 0.0538113 0.0538268 0.0545664 0.0537151 0.0536997 0.0537329 0.0546158 0.0536932 0.0537935 0.0536608 0.0538347 0.0542501 0.0536412 0.0543123 0.0537657 0.0535564 0.0543304 0.0536348 0.0535844 0.0534651 0.054275 0.0535686 0.0535555 0.0535908 0.0543186 0.0535205 0.0536912 0.0543741 0.0534914 0.0536158 0.0543642 0.0535816 0.0536243 0.0543805 0.053503 0.0535333 0.0544499 0.0544323 0.0535507 0.0542159 0.0544873 0.0540664 0.0535786 0.0544502 0.0541637 0.0544322 0.05363 0.0541273 0.0545199 0.0535036 0.0542409 0.0543793 0.053426 0.0541998 0.0544004 0.054161 0.0534328 0.0540478 0.0544207 0.0533521 0.0539208 0.0539609 0.0533645 0.0543739 0.0540878 0.0544423 0.0540032 0.0532406 0.0544757 0.0540291 0.0544976 0.0532949 0.054233 0.0534914 0.0545648 0.0542729 0.0534696 0.0545262 0.0541815 0.0533751 0.0545451 0.0543011 0.0534479 0.0546069 0.0533822 0.0543187 0.0545139 0.053247 0.0545364 0.0542522 0.053317 0.0545903 0.0541126 0.0532641 0.0545691 0.0540583 0.0545505 0.0532092 0.0542115 0.0546228 0.0531451 0.0541333 0.0546318 0.053186 0.0540784 0.0546263 0.0532573 0.0541547 0.0546105 0.0530879 0.0538512 0.0546713 0.0537766 0.0536185 0.0538987 0.0547147 0.053933 0.0535929 0.0546697 0.0538142 0.0536971 0.0546244 0.0535397 0.0535606 0.0546474 0.0535292 0.0536334 0.0545863 0.0537243 0.0534375 0.0546687 0.0537528 0.0534436 0.0536754 0.0535004 0.0546553 0.0536039 0.0534699 0.054683 0.0539797 0.0538701 0.0533723 0.0547002 0.053918 0.0533981 0.0547214 0.0538332 0.0533071 0.0547131 0.0540078 0.0534588 0.0547621 0.0538933 0.0533637 0.053955 0.0547477 0.0537262 0.0533609 0.0537918 0.0548182 0.0533688 0.0536602 0.0547757 0.0532901 0.0538344 0.0544382 0.0537578 0.0532642 0.0545118 0.0533242 0.0544894 0.0536791 0.054463 0.0532224 0.0532891 0.0544892 0.0532658 0.053198 0.0531466 0.0545317 0.0531635 0.053214 0.0545529 0.0533638 0.053072 0.0545921 0.0533152 0.0533057 0.054542 0.0532589 0.0544958 0.0533667 0.0531991 0.0545656 0.0531707 0.0530733 0.0529961 0.0545794 0.0532229 0.0529309 0.0545775 0.053103 0.0532799 0.0530668 0.0545745 0.0531425 0.0531779 0.0545914 0.0530841 0.0529958 0.0546382 0.052995 0.0530611 0.0546312 0.0533459 0.0531016 0.054641 0.0534065 0.0530261 0.0546866 0.0532491 0.0529664 0.0546192 0.0534443 0.0546625 0.0528808 0.0533675 0.054641 0.053195 0.0546787 0.0534472 0.0530695 0.0533735 0.0546906 0.0530298 0.0532864 0.0547165 0.0531589 0.0530043 0.0545847 0.053077 0.0545263 0.0531102 0.053187 0.0545455 0.0529686 0.0532464 0.0546133 0.0528454 0.0546105 0.0531712 0.0529537 0.0546482 0.0531005 0.0528693 0.0546437 0.0531119 0.0528159 0.054557 0.0528972 0.0528714 0.0546108 0.0527694 0.0527433 0.0546153 0.0527645 0.0529157 0.0545765 0.0527654 0.0531586 0.0528442 0.0545723 0.0526161 0.0546602 0.0532597 0.0526771 0.0524707 0.0546734 0.0525262 0.0531684 0.0547195 0.0526839 0.0546867 0.0526064 0.0530884 0.0525063 0.0547379 0.0526015 0.0531149 0.052955 0.0547668 0.0528474 0.0530344 0.0547615 0.052864 0.0546744 0.0530712 0.0530147 0.0547108 0.0529615 0.053032 0.0547007 0.0529831 0.0529412 0.0547231 0.0529352 0.0528451 0.0527753 0.0547696 0.052712 0.0529095 0.0525748 0.0547672 0.0528413 0.052652 0.0528413 0.0547398 0.0527206 0.0527431 0.0547076 0.053068 0.0527996 0.0526309 0.052891 0.0546598 0.052701 0.054744 0.0529815 0.0534302 0.0546963 0.0530088 0.0535101 0.0547641 0.0529842 0.053343 0.0548012 0.0528081 0.0535585 0.0547325 0.0529066 0.0534748 0.0547414 0.053397 0.0528906 0.0547628 0.0533177 0.0547871 0.0526884 0.053259 0.0547812 0.0531847 0.0527931 0.0548078 0.053198 0.0527339 0.0548216 0.0533665 0.0527511 0.0547661 0.0533029 0.0526071 0.0548098 0.0532101 0.0526313 0.0548099 0.0532577 0.0548564 0.0535573 0.0527254 0.0536205 0.0548589 0.0534137 0.0548957 0.0527985 0.0534933 0.0548535 0.052684 0.0548334 0.05363 0.0525721 0.0548748 0.0535497 0.0549071 0.05261 0.0534856 0.0548913 0.0533821 0.0525854 0.0549285 0.0524528 0.0532472 0.0548299 0.0533126 0.052553 0.0547855 0.0523433 0.0533777 0.0548063 0.0524148 0.0534439 0.0548492 0.0532898 0.0524517 0.0548551 0.0548715 0.0522719 0.053109 0.0530857 0.0548117 0.0523679 0.053017 0.0526136 0.0548021 0.0529292 0.0524673 0.0548277 0.0531261 0.05485 0.0524965 0.0530069 0.0529717 0.0525686 0.0530598 0.0548498 0.0528513 0.052493