# vtk DataFile Version 3.0
vtk output
ASCII
DATASET UNSTRUCTURED_GRID
POINTS 24108 float
0 0 0
1 0 0
1 1 0
0 1 0
0 0 0
0 0 0
1 0 0
1 1 0
0 1 0
0 0 0
0 0 0
1 0 0
1 1 0
0 1 0
0 0 0
0 0 0
1 0 0
1 1 0
0.547223 1 0
0 0.193355 0
0 0 0
0 0 0
1 0 0
1 1 0
0 1 0
0 0 0
0 0 0
1 0 0
1 1 0
0 1 0
0 0 0
0 0 0
1 0 0
1 1 0
0 1 0
0 0 0
0 0 0
1 0 0
1 1 0
0 1 0
0 0 0
0 0 0
1 0 0
1 1 0
0 1 0
0 0 0
0 0 0
1 0 0
1 1 0
0 1 0
0 0 0
0.538762 0.406177 0
0.301175 0 0
1 0 0
1 1 0
0.907568 1 0
0.836711 0.889626 0
0.538762 0.406177 0
0 0 0
1 0 0
1 1 0
0 1 0
0 0 0
0 0 0
1 0 0
1 1 0
0 1 0
0 0 0
0 0 0
1 0 0
1 1 0
0 1 0
0 0 0
0 0 0
1 0 0
1 1 0
0 1 0
0 0 0
0 0 0
1 0 0
1 1 0
0 1 0
0 0 0
0.0951228 0 0
1 0 0
1 1 0
0.855248 1 0
0.0951228 0 0
0 0 0
1 0 0
1 1 0
0 1 0
0 0 0
0 0 0
1 0 0
1 1 0
0 1 0
0 0 0
0 0 0
1 0 0
1 1 0
0 1 0
0 0 0
0 0 0
1 0 0
1 1 0
0 1 0
0 0 0
0.100578 0 0
1 0 0
1 1 0
0.714241 1 0
0.353482 0.418632 0
0.100578 0 0
0.156879 0 0
1 0 0
1 1 0
0.776831 1 0
0.156879 0 0
0 0 0
0.309613 0 0
0.651836 0.228432 0
1 0.466694 0
1 1 0
0 1 0
0 0 0
0 0 0
0.23862 0 0
0.676807 0.267104 0
0.925576 0.422855 0
1 0.470384 0
1 1 0
0 1 0
0 0 0
0 0 0
1 0 0
1 1 0
0 1 0
0 0 0
0.437661 0 0
1 0 0
1 1 0
0.935111 1 0
0.634548 0.408368 0
0.437661 0 0
0 0 0
1 0 0
1 1 0
0 1 0
0 0 0
0 0 0
1 0 0
1 1 0
0 1 0
0 0 0
0 0 0
1 0 0
1 1 0
0 1 0
0 0 0
0 0 0
1 0 0
1 1 0
0 1 0
0 0 0
0.344168 0 0
1 0 0
1 1 0
0.962827 1 0
0.533365 0.316842 0
0.344168 0 0
0 0 0
1 0 0
1 1 0
0 1 0
0 0 0
0 0 0
0.0518532 0 0
0.170771 0.0674498 0
1 0.548456 0
1 1 0
0 1 0
0 0 0
0.508331 0 0
1 0 0
1 0.889292 0
0.756251 0.460978 0
0.555054 0.0903852 0
0.508331 0 0
0 0.0894883 0
1 0.641256 0
1 1 0
0 1 0
0 0.0894883 0
0.277138 0 0
1 0 0
1 1 0
0.890679 1 0
0.277138 0 0
0.491798 0 0
1 0 0
1 1 0
0.979092 1 0
0.491798 0 0
0 0.198889 0
0.887053 0.684227 0
1 0.750919 0
1 1 0
0 1 0
0 0.198889 0
0.64424 0.119423 0
0.701044 0 0
1 0 0
1 1 0
0.249815 1 0
0.64424 0.119423 0
0 0.0619549 0
1 0.645033 0
1 1 0
0 1 0
0 0.0619549 0
0.311932 0 0
1 0 0
1 1 0
0.992103 1 0
0.311932 0 0
0 0 0
1 0 0
1 1 0
0 1 0
0 0 0
0 0 0
0.282097 0 0
1 0.406814 0
1 1 0
0 1 0
0 0 0
0 0 0
1 0 0
1 1 0
0 1 0
0 0 0
0.0549377 0 0
1 0 0
1 1 0
0.645983 1 0
0.0549377 0 0
0 0 0
1 0 0
1 1 0
0 1 0
0 0 0
0 0 0
1 0 0
1 1 0
0 1 0
0 0 0
0 0 0
1 0 0
1 1 0
0 1 0
0 0 0
0 0 0
1 0 0
1 1 0
0 1 0
0 0 0
0 0 0
1 0 0
1 1 0
0 1 0
0 0 0
0 0 0
1 0 0
1 1 0
0 1 0
0 0 0
0.175362 0 0
1 0 0
1 1 0
0.772787 1 0
0.175362 0 0
0 0 0
1 0 0
1 1 0
0 1 0
0 0 0
0 0.196242 0
0.390815 0.561051 0
0.617675 0.781168 0
0.834367 1 0
0 1 0
0 0.196242 0
0 0 0
1 0 0
1 1 0
0 1 0
0 0 0
0 0 0
1 0 0
1 1 0
0 1 0
0 0 0
0.344173 0.359091 0
0.562751 0 0
1 0 0
1 1 0
0.697589 1 0
0.363734 0.3955 0
0.344173 0.359091 0
0 0 0
1 0 0
1 1 0
0 1 0
0 0 0
0 0.118112 0
0.775002 0.901114 0
0.869011 1 0
0 1 0
0 0.118112 0
0 0 0
1 0 0
1 1 0
0 1 0
0 0 0
0 0 0
1 0 0
1 1 0
0 1 0
0 0 0
0 0 0
1 0 0
1 1 0
0.536636 1 0
0 0.122385 0
0 0 0
0 0 0
1 0 0
1 1 0
0 1 0
0 0 0
0 0 0
1 0 0
1 1 0
0 1 0
0 0 0
0 0.531835 0
0.485345 0.28146 0
1 0.926442 0
1 1 0
0 1 0
0 0.531835 0
0 0 0
1 0 0
1 1 0
0 1 0
0 0 0
0 0 0
1 0 0
1 1 0
0 1 0
0 0 0
0.154404 0 0
1 0 0
1 1 0
0.825648 1 0
0.154404 0 0
0 0.222804 0
0.385909 0.561692 0
0.624855 0.779594 0
0.857269 1 0
0 1 0
0 0.222804 0
0 0 0
1 0 0
1 1 0
0 1 0
0 0 0
0.231223 0 0
1 0 0
1 1 0
0.860177 1 0
0.231223 0 0
0 0 0
1 0 0
1 1 0
0 1 0
0 0 0
0 0 0
1 0 0
1 1 0
0 1 0
0 0 0
0 0.477958 0
0.422237 0.7722 0
0.736582 0.999757 0
0.736899 1 0
0 1 0
0 0.477958 0
0 0 0
1 0 0
1 1 0
0 1 0
0 0 0
0 0 0
1 0 0
1 1 0
0 1 0
0 0 0
0 0 0
1 0 0
1 1 0
0 1 0
0 0 0
0 0 0
1 0 0
1 1 0
0 1 0
0 0 0
0 0 0
1 0 0
1 1 0
0 1 0
0 0 0
0.432969 0 0
1 0 0
1 0.981306 0
0.432969 0 0
0 0 0
1 0 0
1 1 0
0 1 0
0 0 0
0 0 0
1 0 0
1 1 0
0 1 0
0 0 0
0 0 0
1 0 0
1 1 0
0 1 0
0 0 0
0 0 0
1 0 0
1 1 0
0 1 0
0 0 0
0 0.491034 0
0.0789668 0.45889 0
0.326175 0.362393 0
0.950207 1 0
0 1 0
0 0.491034 0
0 0 0
1 0 0
1 1 0
0 1 0
0 0 0
0 0 0
1 0 0
1 1 0
0 1 0
0 0 0
0 0 0
1 0 0
1 1 0
0 1 0
0 0 0
0 0 0
1 0 0
1 1 0
0 1 0
0 0 0
0 0 0
1 0 0
1 1 0
0 1 0
0 0 0
0.611256 0 0
1 0 0
1 1 0
0.743243 1 0
0.602138 0.829153 0
0.268767 0.417179 0
0.611256 0 0
0 0 0
1 0 0
1 1 0
0 1 0
0 0 0
0 0 0
1 0 0
1 1 0
0 1 0
0 0 0
0 0.609265 0
0.469482 0.449561 0
0.970564 1 0
0 1 0
0 0.609265 0
0 0 0
1 0 0
1 1 0
0 1 0
0 0 0
0 0 0
1 0 0
1 1 0
0 1 0
0 0 0
0.79621 0 0
1 0 0
1 1 0
0.166682 1 0
0.521918 0.426263 0
0.79621 0 0
0 0 0
1 0 0
1 1 0
0 1 0
0 0 0
0 0 0
1 0 0
1 1 0
0 1 0
0 0 0
0 0.277491 0
0.259877 0.403708 0
0.956749 0.759589 0
1 0.782608 0
1 1 0
0 1 0
0 0.277491 0
0 0 0
1 0 0
1 1 0
0 1 0
0 0 0
0 0 0
1 0 0
1 1 0
0 1 0
0 0 0
0.547134 0 0
1 0 0
1 0.442832 0
0.857458 0.308154 0
0.547134 0 0
0 0 0
1 0 0
1 1 0
0 1 0
0 0 0
0 0 0
1 0 0
1 1 0
0 1 0
0 0 0
0 0.602981 0
0.47261 0.441085 0
0.997709 1 0
0 1 0
0 0.602981 0
0 0 0
1 0 0
1 1 0
0 1 0
0 0 0
0.674315 0 0
1 0 0
1 0.371815 0
0.77425 0.118545 0
0.674315 0 0
0 0 0
1 0 0
1 1 0
0 1 0
0 0 0
0 0.632891 0
1 0.313047 0
1 1 0
0 1 0
0 0.632891 0
0 0 0
1 0 0
1 1 0
0 1 0
0 0 0
0.837048 0 0
1 0 0
1 0.240771 0
0.837048 0 0
0 0 0
1 0 0
1 1 0
0 1 0
0 0 0
0 0.180965 0
0.797325 0.88391 0
0.923805 1 0
0 1 0
0 0.180965 0
0 0 0
1 0 0
1 1 0
0 1 0
0 0 0
0 0 0
1 0 0
1 1 0
0 1 0
0 0 0
0 0 0
1 0 0
1 1 0
0 1 0
0 0 0
0 0 0
1 0 0
1 1 0
0 1 0
0 0 0
0.35709 0 0
1 0 0
1 0.513743 0
0.61802 0.212855 0
0.35709 0 0
0 0 0
1 0 0
1 1 0
0 1 0
0 0 0
0 0.579181 0
0.671666 1 0
0 1 0
0 0.579181 0
0 0 0
1 0 0
1 1 0
0 1 0
0 0 0
0.649103 0 0
1 0 0
1 0.390289 0
0.654819 0.00671807 0
0.649103 0 0
0 0 0
1 0 0
1 1 0
0 1 0
0 0 0
0 0 0
1 0 0
1 1 0
0 1 0
0 0 0
0 0.313155 0
0.642526 0.815004 0
0.871343 1 0
0 1 0
0 0.313155 0
0 0 0
1 0 0
1 1 0
0 1 0
0 0 0
0.808956 0 0
1 0 0
1 0.27265 0
0.808956 0 0
0 0 0
1 0 0
1 1 0
0 1 0
0 0 0
0.78239 0 0
1 0 0
1 0.294474 0
0.78239 0 0
0 0.671231 0
0.635798 1 0
0 1 0
0 0.671231 0
0.99151 0.0482839 0
0.97191 0 0
1 0 0
1 0.0675254 0
0.99151 0.0482839 0
0 0.747677 0
0.523085 1 0
0 1 0
0 0.747677 0
0.949439 0 0
1 0 0
1 0.102369 0
0.949439 0 0
0 0 0
0.0652247 0 0
0 0.0436485 0
0 0 0
0 0.592543 0
0.717931 1 0
0 1 0
0 0.592543 0
0 0.608209 0
0.641071 1 0
0 1 0
0 0.608209 0
0.993746 0 0
1 0 0
1 0.0102416 0
0.993746 0 0
0 0.158163 0
0.812719 0.872046 0
0.95277 1 0
0 1 0
0 0.158163 0
0 0 0
0.00131672 0 0
0 0.000796838 0
0 0 0
0.920689 0 0
1 0 0
1 0.159551 0
0.920689 0 0
0 0.43648 0
0.793176 1 0
0 1 0
0 0.43648 0
0 0.462532 0
0.829463 0.99973 0
0.829848 1 0
0 1 0
0 0.462532 0
0.990518 0 0
1 0 0
1 0.0258402 0
0.990518 0 0
0 0.450853 0
0.739034 1 0
0 1 0
0 0.450853 0
0 0 0
0.13325 0 0
0 0.0536073 0
0 0 0
0.992493 0 0
1 0 0
1 0.0223129 0
0.992493 0 0
0 0.461114 0
0.759766 1 0
0 1 0
0 0.461114 0
0 0.287608 0
0.37732 0.562814 0
0.655285 0.772927 0
0.944646 1 0
0 1 0
0 0.287608 0
0.735029 0 0
1 0 0
1 0.15863 0
0.735029 0 0
0 0.611749 0
1 0.226218 0
1 1 0
0 1 0
0 0.611749 0
0.151462 0 0
1 0 0
1 0.588275 0
0.617245 0.333783 0
0.151462 0 0
0 0 0
0.286817 0 0
0 0.126324 0
0 0 0
0 0.1705 0
0.882159 0.589628 0
1 0.648214 0
1 1 0
0 1 0
0 0.1705 0
0.811587 0 0
1 0 0
1 0.278503 0
0.811587 0 0
0.601352 0 0
1 0 0
1 0.430719 0
0.862749 0.287195 0
0.601352 0 0
0.896037 0 0
1 0 0
1 0.0559773 0
0.896037 0 0
0 0.333668 0
0.223686 0.428971 0
0.95679 0.758516 0
1 0.778857 0
1 1 0
0 1 0
0 0.333668 0
0.343821 0 0
1 0 0
1 0.551809 0
0.890763 0.46716 0
0.343821 0 0
0 0.576067 0
1 0.150129 0
1 1 0
0 1 0
0 0.576067 0
0 0 0
0.0763668 0 0
0 0.0489247 0
0 0 0
0.476011 0 0
1 0 0
1 0.489335 0
0.899517 0.39755 0
0.476011 0 0
0 0.671641 0
0.345601 0.505919 0
1 0.204759 0
1 1 0
0 1 0
0 0.671641 0
0.692201 0 0
1 0 0
1 0.382553 0
0.692201 0 0
0 0.164314 0
0.919236 0.577484 0
1 0.615439 0
1 1 0
0 1 0
0 0.164314 0
0.939809 0 0
1 0 0
1 0.130322 0
0.939809 0 0
0 0 0
0.213638 0 0
0.187542 0.0131559 0
0 0.104278 0
0 0 0
0.838211 0 0
1 0 0
1 0.251827 0
0.838211 0 0
0 0.216177 0
0.909083 0.672263 0
1 0.721521 0
1 1 0
0 1 0
0 0.216177 0
0.868195 0 0
1 0 0
1 0.197124 0
0.868195 0 0
0 0 0
0.216114 0 0
0.945709 0.370293 0
1 0.398538 0
1 1 0
0 1 0
0 0 0
0 0 0
1 0 0
1 1 0
0 1 0
0 0 0
0.981449 0 0
1 0 0
1 0.0365904 0
0.981449 0 0
0.843252 0 0
1 0 0
1 0.259168 0
0.843252 0 0
0.837666 0 0
1 0 0
1 0.100429 0
0.837666 0 0
0 0 0
0.162437 0 0
0.988866 0.470553 0
1 0.47709 0
1 1 0
0 1 0
0 0 0
0.780306 0 0
1 0 0
1 0.325069 0
0.808167 0.0433554 0
0.780306 0 0
0 0 0
0.320847 0 0
0 0.158745 0
0 0 0
0.996697 0 0
1 0 0
1 0.0090841 0
0.996697 0 0
0 0 0
0.0792029 0 0
1 0.448924 0
1 1 0
0 1 0
0 0 0
0 0 0
0.43922 0 0
0 0.244064 0
0 0 0
0 0.384152 0
0.461437 0.155338 0
0.67907 0.265884 0
0.922839 0.393105 0
1 0.434279 0
1 1 0
0 1 0
0 0.384152 0
0 0.621366 0
1 0.299881 0
1 1 0
0 1 0
0 0.621366 0
0.581057 0 0
1 0 0
1 0.238073 0
0.726022 0.0874691 0
0.581057 0 0
0 0.67871 0
0.232504 0.579541 0
1 0.267589 0
1 1 0
0 1 0
0 0.67871 0
0.475115 0 0
1 0 0
1 0.24996 0
0.513478 0.0196226 0
0.475115 0 0
0 0.214244 0
0.821437 0.865327 0
0.984669 1 0
0 1 0
0 0.214244 0
0.993297 0 0
1 0 0
1 0.00782449 0
0.993297 0 0
0 0.609556 0
0.945692 0.279933 0
1 0.261722 0
1 1 0
0 1 0
0 0.609556 0
0 0 0
0.379196 0 0
0 0.133899 0
0 0 0
0 0.233879 0
0.82208 0.864831 0
0.991188 1 0
0 1 0
0 0.233879 0
0.54944 0 0
1 0 0
1 0.19826 0
0.54944 0 0
0 0.0792387 0
1 0.525153 0
1 1 0
0 1 0
0 0.0792387 0
0.588844 0 0
1 0 0
1 0.337267 0
0.976423 0.318423 0
0.588844 0 0
0.565372 0 0
1 0 0
1 0.261092 0
0.708268 0.0912002 0
0.565372 0 0
0 0.445811 0
0.03903 0.426283 0
0.435112 0.235019 0
1 0.50698 0
1 1 0
0 1 0
0 0.445811 0
0.843228 0 0
1 0 0
1 0.0626933 0
0.843228 0 0
0.809227 0 0
1 0 0
1 0.127884 0
0.809227 0 0
0 0.695429 0
0.622714 0.326193 0
1 0.554046 0
1 1 0
0 1 0
0 0.695429 0
0 0.73283 0
0.292995 0.642917 0
1 0.441054 0
1 1 0
0 1 0
0 0.73283 0
0.532366 0 0
1 0 0
1 0.222578 0
0.532366 0 0
0 0.123945 0
1 0.580512 0
1 1 0
0 1 0
0 0.123945 0
0.709616 0 0
1 0 0
1 0.101803 0
0.709616 0 0
0.815483 0 0
1 0 0
1 0.0787207 0
0.815483 0 0
0 0.477802 0
0.294986 0.346912 0
0.485788 0.265598 0
1 0.54258 0
1 1 0
0 1 0
0 0.477802 0
0 0 0
1 0 0
1 1 0
0 1 0
0 0 0
0 0 0
1 0 0
1 1 0
0 1 0
0 0 0
0 0 0
1 0 0
1 1 0
0 1 0
0 0 0
0 0 0
1 0 0
1 1 0
0 1 0
0 0 0
0 0 0
1 0 0
1 1 0
0 1 0
0 0 0
0 0 0
1 0 0
1 1 0
0 1 0
[...]
CELL_DATA 4778
FIELD FieldData 3
weight 1 4778 float
 1.11577 1.10302 1.10934 1.00318 1.12168 1.11557 1.12195 1.11587 1.12798 1.11567 0.959149 1.13429 1.12183 1.12831 1.12794 1.1219 0.965671 1.00323 1.15931 1.15316 1.14087 0.978015 0.965558 1.12807 1.1342 1.17185 0.940849 1.19043 1.19707 1.19669 1.19044 0.94665 1.19696 1.12821 0.928339 1.09086 0.953341 0.934133 1.07205 0.921932 1.10929 0.940684 0.996728 1.17791 1.1968 0.971928 1.18414 1.1281 1.19686 1.19706 1.19707 1.19666 0.959501 1.01573 1.02175 1.12822 1.1343 0.965434 1.12211 1.01566 1.12193 1.12174 0.984554 1.12212 1.12804 1.01562 1.12821 1.13427 0.959615 1.02788 1.12789 0.953341 1.12819 1.13432 1.00959 1.1344 1.14066 1.13456 1.1342 1.13423 0.928048 1.14071 1.14066 1.13419 1.14051 1.0283 1.14082 1.14704 1.14671 1.14059 1.14689 0.959315 1.1471 1.1404 1.02198 1.1404 1.14073 0.921693 1.12827 1.13448 1.10302 1.13415 1.13418 0.884552 1.12823 1.14045 1.04049 1.14064 0.878288 1.1405 1.03448 1.1407 0.834403 1.13435 1.02828 1.14062 1.14062 1.13456 1.15314 0.89081 1.14702 0.996693 1.14707 0.865607 1.14687 1.14673 1.06541 1.15325 0.846747 1.14697 0.859344 0.971928 0.815422 0.978102 0.821626 0.715789 1.00946 1.00334 0.797108 1.05942 0.709417 0.828179 1.00315 1.00948 0.809148 1.01583 0.79692 0.815403 1.02199 1.05289 0.784139 1.04082 0.897111 0.803001 1.10337 0.853162 0.871642 0.778352 1.07195 0.88454 1.09085 0.702997 0.877998 1.03436 0.859605 1.15932 0.822047 0.759466 0.840512 1.09676 0.828173 1.19674 1.19678 0.809353 0.846717 0.784255 1.19708 0.852993 0.80926 0.815458 1.19686 0.815395 1.19683 1.06585 0.834602 1.0592 0.853098 1.05334 0.778272 1.10939 0.828007 1.04678 0.846897 1.19708 0.815566 0.840522 1.19702 0.82208 0.790726 1.08438 1.07202 0.853313 1.19076 0.846726 0.828253 1.19684 1.15957 1.15293 1.15301 1.15916 1.15927 1.16587 1.14697 1.15297 1.15334 0.78449 1.15928 1.15313 1.16577 1.1595 1.15939 1.15962 0.796685 1.16579 1.17202 1.16554 1.15913 0.746832 1.15944 1.16545 1.15941 1.15959 1.15324 0.896655 1.14067 1.15914 1.14682 0.871629 1.15324 1.14681 1.14679 1.1408 0.865533 1.14666 1.15307 0.803038 1.14085 1.15302 1.1593 0.890817 1.15309 1.16557 1.1532 0.9344 1.14686 0.803296 1.14674 0.802927 1.15936 1.16541 1.15289 0.809496 1.1531 1.17179 1.17186 0.797085 0.878123 1.17194 0.853101 1.1721 1.17195 1.17807 1.16545 0.846683 1.17199 0.859236 1.16566 1.16547 0.859308 1.16573 0.846962 1.17803 1.17817 1.17827 1.18417 0.834171 1.18438 0.815675 1.17828 0.865687 1.18437 0.80925 1.17177 1.17205 1.18422 0.828316 1.17825 1.18456 0.809215 1.17212 1.16581 0.840429 1.15956 1.17798 0.821786 1.17208 0.840721 1.16541 1.15962 1.15308 0.815726 1.15936 0.909599 1.15303 1.15915 1.17813 0.840761 1.17195 0.915613 1.17205 1.17194 1.17211 0.834518 0.871678 1.1779 1.16562 0.84068 1.16564 1.17192 0.928132 1.16575 1.13437 0.865786 1.12805 0.884598 1.13418 1.14697 0.859549 1.12796 0.896838 1.14052 1.122 1.11556 0.86572 1.12792 0.878357 1.1344 1.12176 1.14072 0.853203 1.14077 1.13421 1.14669 1.14048 0.8345 1.13447 0.884339 1.12182 1.12823 1.11546 0.853109 0.871664 1.12834 1.14064 0.865399 1.13426 0.878286 1.12197 1.11575 0.877938 1.10332 1.10325 0.846866 1.10962 0.871752 1.10305 1.10947 1.08413 1.07166 1.08423 0.846884 1.07822 0.884185 1.07803 1.12179 1.09087 1.11544 0.878225 1.11543 1.10961 1.09708 1.0904 0.897047 1.07211 1.09709 0.772062 0.890539 1.10305 1.08417 1.15294 1.1471 1.14061 1.14674 1.13462 0.890579 1.12807 0.815573 1.14083 1.14667 0.903333 1.13446 1.14667 0.821967 1.15288 1.14082 1.15313 1.14704 0.77193 1.15948 0.922027 0.784384 0.765458 1.14699 1.14082 1.14058 0.915702 1.14681 0.796657 1.1467 1.14052 0.896845 1.13431 0.734395 1.12789 1.12189 1.12827 0.909127 1.12184 1.11563 1.10945 1.09059 1.09671 1.10334 1.10957 1.10289 0.890494 1.1346 1.12812 1.1343 1.1281 1.13461 1.12211 1.128 1.1157 0.903197 1.10937 0.822087 1.10326 1.12179 1.1154 1.17814 1.18445 1.18424 0.790787 0.903274 1.19055 1.18435 1.18436 1.17203 0.803177 0.909566 1.1908 0.803363 1.18413 1.19069 0.92201 1.1842 1.1907 0.834349 1.19689 0.915548 1.1906 1.19664 1.19068 0.921658 0.827982 1.1905 0.871703 1.19073 1.19056 1.18448 0.878223 1.17837 1.172 0.86563 0.778351 1.17827 1.1655 0.85948 1.17175 1.17814 1.17803 0.809268 0.89053 1.16566 0.815709 1.17797 1.15937 0.884405 1.15937 1.15958 0.897109 1.1592 1.1592 1.15932 1.1657 1.17189 1.1779 1.16538 1.16557 0.821803 1.1717 1.16552 0.865503 1.15931 1.17163 1.16541 1.17206 0.859204 1.16576 0.752911 1.19669 1.19071 1.19668 0.815716 1.19062 0.85322 1.18452 1.19674 1.17797 0.809508 1.19064 1.16585 0.803126 1.17173 0.871738 1.18459 1.17203 1.19068 0.809279 1.1846 0.822043 1.19705 0.865429 1.19084 0.828354 1.1969 1.17831 0.82821 0.772038 1.17793 0.821698 1.18416 1.17833 1.18429 0.834345 1.16542 1.16581 1.17203 1.17207 1.17196 0.834606 1.18452 1.17813 0.871918 1.17803 1.15934 0.840783 1.17179 0.903002 1.17805 0.847105 1.17814 1.17813 1.19039 1.18423 1.17833 0.909501 0.784432 1.17799 0.903339 1.17176 1.17815 1.18422 1.18435 0.909586 1.15328 0.784418 1.15326 1.15288 1.15951 1.15328 0.915547 1.15321 0.80915 1.15313 1.14671 1.14674 1.14668 1.15935 1.15328 0.821801 1.15924 0.915603 1.16554 1.15918 1.15317 0.840618 1.15309 0.890446 1.14668 1.14664 1.1344 0.878292 1.15297 0.796776 1.14065 1.14046 1.14048 1.13432 0.82806 0.903108 1.14045 1.12808 1.12825 0.83456 1.11543 1.10939 1.12188 0.909342 1.1219 1.11586 1.1406 1.1346 0.8971 1.14699 0.890784 1.12791 1.12832 1.12205 0.771838 1.11579 1.11541 1.12174 1.13421 1.11553 1.16573 1.16541 1.15322 1.17193 1.16571 0.76563 1.1717 1.15946 1.14076 0.771866 1.15325 1.14663 1.15942 1.14712 0.821805 1.17167 1.17168 1.16546 1.17832 1.15955 1.16583 0.840555 1.15919 1.16545 1.15918 1.15947 0.803165 1.15292 1.153 1.12804 1.14668 0.828012 1.12799 1.13458 1.15315 1.14059 1.14074 0.846641 1.12212 1.11563 1.10919 1.13428 1.12819 0.878041 1.12817 1.13455 1.14045 0.828237 1.12193 1.12204 0.852981 1.1219 0.827908 0.884198 1.11545 0.840563 0.853257 1.10942 0.859221 1.10327 0.884484 1.11572 1.07188 1.06577 1.07791 0.890399 1.04697 1.06559 1.07187 0.915407 1.05933 1.05333 1.0406 1.0221 0.934213 0.834217 1.03458 1.03461 0.922036 1.04058 1.02792 1.06547 1.04087 1.05933 0.928219 1.06539 1.06568 1.05913 0.903252 1.04042 1.04691 1.02803 0.934524 1.05302 1.03439 0.853293 0.978144 1.00304 0.846799 0.978321 0.909521 0.965765 1.01578 1.00925 0.884127 0.990554 0.84697 0.878234 0.971664 0.928323 0.940638 0.946719 0.972014 0.915704 0.959528 0.934231 0.953117 0.940479 0.852991 1.00306 0.959215 1.02195 0.834433 1.01574 0.852921 1.02211 0.846958 0.996692 0.859211 0.98433 0.878276 0.99066 0.846698 0.965511 0.846627 0.797016 0.946741 0.840444 0.859146 0.971844 0.859257 0.846699 0.978354 0.83424 0.853361 0.953245 0.884461 0.840755 1.08425 1.07194 0.884504 1.06553 0.82824 1.09692 1.09043 0.87189 1.07792 1.06562 0.865543 1.03451 0.871859 1.07791 1.05921 1.05936 1.09674 0.909609 1.09062 0.896825 1.08449 1.1029 1.10941 0.878348 1.09669 0.809318 0.7408 1.05915 0.865434 1.08427 0.871783 1.05301 1.09058 0.890439 1.07199 0.884175 1.05322 0.87829 0.815406 0.828068 1.02791 0.815594 0.834202 0.790695 1.0221 0.828246 0.809503 0.997017 0.821834 0.815791 0.822076 0.98446 0.840657 0.865508 1.02816 0.859185 0.803317 1.01574 0.853202 1.02207 0.834392 0.852994 1.00925 0.840659 0.815624 0.809236 0.828256 0.984175 0.821852 0.890467 0.978118 0.865712 0.821724 1.00957 0.878285 0.846686 0.827977 0.990771 0.890843 0.834298 0.828257 0.88445 0.83454 0.822111 0.972051 0.896651 0.84062 1.04672 0.834619 0.921928 1.02194 0.865789 0.828116 0.971925 1.04038 0.859373 1.04667 0.865565 0.815537 0.953245 0.884294 0.82198 1.01555 0.871788 0.834367 1.03432 0.921916 0.878089 0.828116 1.01586 0.903261 0.840681 0.859343 0.996645 0.946968 0.853192 0.865828 0.846703 0.946675 0.859255 0.884405 0.840408 0.853306 1.00333 0.853221 0.897063 0.871739 0.978203 0.903124 0.871633 0.85914 0.87184 0.90953 0.85962 0.897093 0.946922 0.903353 0.871858 0.903223 0.934269 0.890746 0.834462 0.927912 0.909369 0.84706 0.921757 0.928262 0.859433 0.959423 0.934574 0.853031 0.959477 0.834453 0.940425 0.940692 0.865551 0.953003 0.952994 0.871628 0.934149 0.884592 0.934402 0.865709 0.903081 0.878342 0.940478 0.965434 0.884148 0.878211 0.965439 0.928295 0.890862 0.971753 0.890406 0.884606 0.940854 0.859465 0.890835 0.959596 0.946915 0.871951 0.946691 0.834361 0.984157 0.940831 0.815439 0.922109 0.815505 0.953298 0.965436 0.90311 0.821659 0.934306 0.984352 0.828109 0.96584 0.83418 0.965494 0.959325 1.0032 0.840836 0.915789 1.02192 0.834342 0.971951 1.01549 0.978308 1.00962 0.840711 0.928301 0.977884 0.847094 0.990592 0.972063 1.0033 0.89702 0.965495 0.821974 0.946886 0.878366 0.840537 0.953365 0.815531 0.821676 0.847036 0.853272 0.828164 0.859271 0.865526 0.847023 0.859325 0.853265 0.872025 0.865653 0.840382 0.85919 0.872054 0.846821 0.85292 0.890772 0.865602 0.884407 0.896891 0.89679 0.903024 0.871899 0.903184 0.984405 0.877969 0.947077 0.878316 0.859444 0.965748 0.90309 0.971947 0.953255 0.909471 0.971849 0.896708 1.00303 0.840416 0.959413 0.909514 0.934521 0.87181 0.909549 0.959508 0.928341 0.909572 0.978055 0.934245 0.853098 0.921716 1.00927 0.928089 0.940532 0.996785 0.809324 0.922061 0.946983 1.00937 1.02171 0.940613 0.840473 0.921742 1.01568 0.784573 1.02837 0.928339 1.02795 1.04055 0.915869 1.02798 1.05292 0.934363 1.04075 1.03444 1.04696 0.821987 1.05309 0.921831 1.05937 1.06585 1.07172 0.928223 1.05957 0.809596 1.07822 1.04076 0.934402 1.04705 1.06564 1.04668 1.05302 0.928214 1.05917 1.07821 1.05947 0.92201 0.777898 1.0904 1.08442 0.934332 1.07209 1.09676 0.953163 0.759491 0.99057 0.953258 0.784427 0.946926 0.984276 0.965717 1.01567 0.959551 0.959413 0.990598 0.771901 0.965581 0.978138 0.953079 1.02173 0.940618 0.827884 0.946717 0.996707 0.959197 0.952929 1.03416 0.821716 1.02192 0.959159 0.98428 1.03461 0.984486 0.790859 0.990718 0.99047 0.996631 1.0406 1.00337 0.996991 0.827953 1.04081 0.972058 0.797009 0.990819 0.978243 1.03439 0.790545 0.978139 1.00337 0.997086 1.00935 0.996746 0.796704 1.02187 0.971647 1.00333 0.777895 1.00937 1.02807 1.02788 1.02192 1.01556 1.00333 1.00937 1.01569 1.02198 1.02825 1.03449 1.02803 1.01546 1.05324 1.05306 0.984323 0.977937 0.990496 1.04704 0.921956 0.984251 1.04676 0.99057 0.959151 1.04698 0.971909 0.965808 1.05914 1.05915 0.965746 1.04685 1.06587 0.834135 1.05296 0.915629 1.06565 0.971828 1.06576 1.07164 0.97169 1.09056 0.978254 1.08423 0.809598 0.947029 1.08446 1.09666 0.984416 1.0906 0.965771 0.834479 1.05918 0.972118 1.07835 0.90913 1.07823 1.06564 0.984194 0.890622 1.00962 0.827922 1.07197 0.859407 1.07809 0.997105 1.09061 1.09694 1.00326 1.09066 1.02211 1.08444 0.834226 0.865389 1.0092 1.09701 0.828307 1.10949 0.897039 1.10294 0.997049 0.84045 0.853367 0.990563 0.840552 0.865665 1.01538 0.828081 0.940462 1.00303 0.8342 1.00325 0.84073 0.940507 0.828268 0.915745 0.959603 0.834245 0.915604 0.934232 0.846662 0.902945 0.821651 0.847099 0.928153 0.940707 0.840682 0.921643 0.934243 0.846685 0.859352 0.896751 0.884535 0.847014 0.902978 0.853211 0.853036 0.877944 0.890474 0.928226 0.915609 0.859139 0.915584 0.859428 0.928144 0.853086 0.853271 0.909388 0.847027 0.890461 0.85941 0.909292 0.865717 0.853165 0.940441 0.834126 0.853088 0.93423 0.859223 0.81582 0.940855 0.802896 0.947062 0.85931 0.865727 0.81552 0.953158 0.865482 0.846676 0.946851 0.865575 0.846918 0.878013 0.959558 0.871636 0.896649 0.815626 0.834211 0.921825 0.915764 0.846709 0.928188 0.784531 0.877877 0.828259 0.947 0.853266 0.915722 0.915423 0.865386 0.940721 0.952979 0.85289 0.928339 0.940741 0.840854 0.934601 0.840811 0.896839 0.859508 0.959593 0.859269 0.89085 0.822094 0.897015 0.847053 0.96584 0.884157 0.809286 0.934496 0.846796 0.902942 0.82797 0.940479 0.859382 0.890418 0.977897 0.871926 0.803333 0.903178 0.878337 0.865558 0.87789 0.815804 0.909268 0.877934 0.865757 0.790513 0.871712 0.890613 0.859364 0.884384 0.840601 0.871942 0.890498 0.915381 0.871792 0.884563 0.909274 0.890564 0.90927 0.796885 0.928302 0.88436 0.909326 0.952886 0.884257 0.915425 1.09702 0.971903 0.884549 1.10307 1.09076 1.10916 0.922072 0.959354 1.10336 0.890599 1.09695 1.10318 0.971762 0.915645 0.890835 1.07821 0.959503 0.896779 0.921935 1.07163 0.896674 0.89682 1.0717 1.08434 0.896685 0.896836 0.890768 1.05333 1.10915 1.09664 0.902954 1.10328 1.10922 1.10934 0.872106 0.90299 1.09074 0.853338 0.909518 1.08439 0.965743 1.07825 0.853373 0.965541 1.09086 0.953102 0.759193 1.09039 0.972114 0.790636 1.07199 0.965849 1.06542 0.947098 1.04706 0.953101 0.797 1.05298 0.934459 0.803173 1.0405 0.959413 1.05306 0.971842 0.890566 0.97183 0.865621 0.965627 0.809162 1.04671 0.903115 0.978299 0.990813 0.897033 0.797086 0.990459 0.946984 1.00933 0.815633 0.859139 0.98432 0.990828 0.928272 0.815552 1.00924 0.977896 0.934591 1.00331 0.821836 0.965852 0.996857 0.984601 0.965529 0.996989 1.05934 0.82175 0.953118 0.990676 0.834342 1.06582 0.990843 0.984294 1.04059 0.946769 0.802995 0.978038 0.984289 1.04664 0.984602 0.902993 1.0593 0.822027 0.978246 0.921785 1.04068 0.853209 0.990477 1.05917 0.940669 0.828128 0.990809 1.03423 0.940465 0.827882 0.98421 1.02168 0.946954 0.85916 0.927918 1.03452 0.971986 0.703292 0.934458 0.953196 1.02789 0.978274 0.927877 0.990431 0.996695 0.940781 1.10303 0.79672 0.959167 0.971976 1.09066 0.98414 0.947101 1.09668 0.784499 0.984487 0.940405 1.0967 0.996858 0.940846 1.08439 1.00303 0.921664 1.09676 1.02205 1.07807 1.02818 0.928351 1.05333 1.05317 0.765856 1.07806 0.934176 1.05956 0.934189 1.07197 1.07185 0.928101 1.08424 1.02209 0.921694 0.771826 1.0596 0.959299 1.04077 1.10333 0.815417 0.953113 1.05332 0.959127 0.984429 0.828321 1.0907 0.965682 0.809372 1.01585 1.10915 0.971935 0.847045 1.01559 0.940492 1.09682 0.82801 1.00947 0.947117 1.07194 0.840485 0.990732 1.0783 0.821744 0.934383 1.04062 1.06581 0.952974 0.815746 0.996766 1.07208 0.96582 0.834414 1.05953 0.947025 1.03428 1.06585 0.834484 1.06542 1.0468 0.840744 1.04699 1.02809 1.04062 1.04665 0.840795 1.03438 0.853139 1.07209 0.859512 1.02799 1.07797 0.84075 1.08416 1.04055 1.09685 0.865498 1.08433 0.865446 1.0033 1.07195 0.877936 1.09065 0.871718 0.996906 1.1032 0.865707 1.1031 1.09055 1.00923 0.884159 1.09073 1.10916 0.877997 0.984168 1.08418 0.87163 1.07837 0.984262 0.890833 1.0971 1.05305 0.877927 1.07182 1.04071 1.07812 1.09704 0.884464 1.02826 1.09052 0.90314 1.05308 1.08434 1.10306 1.10303 1.04684 0.978334 0.903197 1.02171 0.896861 1.02208 1.03448 1.00932 0.915735 1.01557 1.00309 0.890737 0.996981 0.884524 1.02821 0.997091 0.890423 1.02826 0.984247 0.909563 1.02212 0.990536 1.05961 0.897082 0.978215 0.909618 1.03456 0.978071 0.853002 1.03454 0.921759 0.86569 1.04704 0.928081 0.859459 1.05304 0.871746 0.990389 0.877958 0.990638 0.984621 0.877946 0.990765 0.921884 0.846993 1.01574 0.952953 0.915618 0.865588 0.978029 0.865823 0.871711 0.872083 1.0031 0.902925 0.997095 0.802976 0.871905 0.853033 1.01581 1.0154 1.04085 0.88439 0.821995 0.965779 0.87835 0.921815 1.01539 0.81542 0.884577 0.971892 1.04054 1.03444 1.00316 0.896657 1.05916 0.959517 0.890531 0.959469 1.07795 0.909595 0.89039 1.07813 0.828331 0.928199 0.88417 0.897014 0.847122 1.07189 0.903024 0.822009 0.934483 1.06571 0.909355 0.87803 0.834279 1.06571 0.865861 0.903018 1.06565 0.902969 0.840448 1.08413 0.89698 0.827975 0.903169 0.83446 1.08423 0.852923 1.10294 0.89671 0.815437 1.09705 0.80299 0.815498 0.921676 1.09692 0.81558 0.846757 1.05946 0.909297 0.828027 1.07822 0.822016 0.915591 0.840523 1.05325 0.822008 0.865678 0.822074 1.0655 0.871924 1.05962 0.865755 0.872058 1.0845 0.884398 1.09055 1.09055 0.87818 0.859465 1.10311 0.872051 1.06546 0.859253 0.878368 1.09663 0.884138 1.0779 0.77197 1.09076 1.07177 0.890874 1.09691 1.10917 1.09046 1.10938 1.11587 0.884377 1.10305 0.878318 1.09664 1.10302 1.1096 1.08448 0.890538 1.09079 1.0967 1.10305 0.896972 1.10949 1.09681 1.11547 1.12195 0.897078 1.1155 0.965436 1.122 0.903218 1.1156 1.12176 0.953271 1.12168 0.890852 1.13433 0.928116 1.12174 0.902928 1.12804 1.13456 0.896899 0.934282 1.13437 1.12799 0.915786 1.14078 0.997109 1.14056 1.12836 0.902904 1.11578 0.977911 1.12837 1.1219 0.915539 0.946735 1.12816 1.14042 1.1343 1.13442 1.14667 0.90945 0.909172 1.15307 1.14053 0.928293 1.14692 0.915398 1.15302 1.1469 1.10302 0.88445 0.89074 1.10927 1.10295 0.878109 1.1282 0.90936 0.903129 1.1094 1.12203 1.11586 0.884586 1.12801 0.896841 1.13447 1.12813 0.903123 0.890391 1.13437 1.10332 0.896837 1.1093 0.971974 0.909549 1.12201 1.12202 0.897053 1.11567 0.909332 1.11579 1.12184 0.915689 1.12805 1.13417 0.896688 1.14054 0.947022 1.12816 1.13413 0.902882 1.14687 0.9405 0.909518 1.13422 1.14071 0.884437 1.1407 1.14671 0.877913 1.14698 0.915813 1.14703 1.15304 0.915476 0.884326 1.15931 1.15314 0.921933 0.92807 1.15925 1.14046 1.15315 0.90312 0.921631 1.15957 0.865598 1.14706 1.15293 0.92791 1.15929 1.16567 1.15943 1.15915 0.840697 0.921784 1.15332 1.16587 0.921689 1.16543 1.15927 1.14038 0.934443 1.15307 0.853217 1.14687 1.14688 0.915583 1.15942 0.878045 1.14682 1.1467 0.928079 1.14676 1.15288 1.15334 0.940453 1.15294 1.15308 1.15305 0.928098 1.15297 1.16565 0.927918 1.15924 0.871907 1.15961 1.14702 0.934477 1.15333 1.15939 0.946916 1.15929 1.15295 1.15322 0.871672 0.940527 1.15956 1.15297 1.15325 0.940484 1.15926 1.15944 1.15926 0.934301 1.15334 1.15945 0.909232 1.1529 1.15959 1.15913 0.903024 1.15944 1.16556 1.14711 1.15958 0.909304 1.15937 1.16566 1.15301 0.909209 1.16556 0.915845 0.915823 0.915481 0.921653 0.934562 0.940632 0.940412 0.927894 0.947003 0.921706 0.921759 0.928327 0.934468 0.940789 0.946768 0.947092 0.934318 0.965453 0.953183 0.959135 0.965789 1.1656 0.971765 0.947033 1.15923 0.934189 1.16555 1.16582 0.946809 0.953268 0.95931 1.16541 0.953261 1.16561 1.16572 1.18454 1.16583 0.959522 1.19711 1.16571 1.19065 1.17183 0.953267 1.1908 1.15927 1.19668 1.15931 1.19665 1.17211 1.1906 1.16547 0.959523 1.18423 1.16576 0.965609 1.18459 1.17182 1.19039 0.978291 1.1718 1.18462 1.16581 0.959402 1.19081 1.1779 0.972003 1.19665 1.17184 0.965838 1.1904 1.16581 1.19694 1.16572 1.17207 1.19702 0.965792 1.17808 1.19046 1.17187 1.19069 1.16542 1.19087 0.971846 1.16542 1.17811 1.17196 0.971956 1.19071 1.16562 1.18443 1.16562 1.17803 1.17168 1.18437 1.17173 0.990755 1.17816 1.17176 1.17198 1.18439 1.17794 1.18448 1.16574 0.984279 1.1719 1.19084 1.17199 1.18427 0.984536 1.17211 1.17834 1.17817 1.17209 1.17814 1.17169 1.19049 1.17816 1.19056 1.17832 1.1782 0.984324 1.1844 1.19065 0.990472 1.19687 1.17808 0.996827 1.19074 1.17809 1.17795 1.16541 1.17805 0.990473 1.19052 1.17205 1.18456 1.1155 1.15941 1.11553 1.12186 1.12164 1.16559 1.10947 1.19712 1.12191 1.19663 0.909434 1.11541 1.18443 1.12799 1.19696 1.14062 0.9281 1.14076 1.19693 1.12811 1.19702 1.13449 1.18423 1.13452 1.18417 0.92167 1.10958 1.19042 1.10922 1.19053 1.12173 1.19055 0.934564 1.11566 1.19075 1.10952 1.1971 1.11554 1.19706 0.921715 1.19702 1.12834 1.19071 1.12796 0.934183 1.19041 1.13432 1.1907 1.12168 1.1346 1.19081 1.13449 1.19042 0.928173 1.15335 1.14039 1.19675 1.14673 1.18459 1.14069 1.19669 1.14708 1.15926 0.915642 1.14084 1.13413 1.14072 1.18425 1.14699 0.93432 1.14706 1.16544 1.17207 1.17208 1.15305 1.14038 1.15316 1.1407 1.17163 0.934333 1.14691 1.19672 1.14706 1.18445 1.147 1.14673 1.1529 0.94681 1.15337 1.15938 1.12788 1.15296 0.94074 1.15931 1.15319 1.11561 1.10295 1.12806 0.946754 1.1658 1.12195 1.15917 0.940574 1.11578 1.10942 1.1217 0.946712 1.13423 1.12817 0.953209 1.14061 1.13457 1.10936 0.953208 1.14695 0.959242 0.946693 1.10296 1.09672 1.11584 0.953246 1.12184 1.10333 1.10944 0.953137 1.09705 1.09707 1.17165 0.971809 1.15324 0.846769 1.14071 1.11574 0.95945 1.17181 1.12801 0.840625 1.12827 0.965705 1.14056 0.846921 1.14683 1.14086 1.14705 1.12827 0.853133 1.13419 0.922004 1.13454 1.1345 1.13457 0.91551 1.13444 0.872122 1.1471 1.14063 1.14086 0.915409 1.11551 0.853124 1.15299 1.14046 1.15313 1.12166 0.921734 1.15288 0.827903 1.15317 1.15945 1.13448 0.834556 1.15921 0.940833 1.12164 1.15947 0.821724 1.16547 1.13459 0.840737 0.927951 1.15953 0.83424 1.16577 1.10944 1.16546 0.928107 1.12198 1.15293 0.840619 1.14697 1.15929 1.12185 1.14691 0.8345