# vtk DataFile Version 3.0
vtk output
ASCII
DATASET UNSTRUCTURED_GRID
POINTS 44483 float
0.0112644 0.0209844 0
0.00788258 0.0125653 0
0.010772 0.00908481 0
0.0220144 0.0108787 0
0.0196295 0.0209684 0
0.0112644 0.0209844 0
0.00963882 0 0
0.0233803 0 0
0.0222859 0.0106795 0
0.0220144 0.0108787 0
0.010772 0.00908481 0
0.00963882 0 0
0 0 0
0.00963882 0 0
0.010772 0.00908481 0
0.00788258 0.0125653 0
0 0.0128314 0
0 0 0
0.0222859 0.0106795 0
0.0233803 0 0
0.0332522 0 0
0.0338407 0.0113514 0
0.0316654 0.0126023 0
0.0222859 0.0106795 0
0.0196295 0.0209684 0
0.0220144 0.0108787 0
0.0222859 0.0106795 0
0.0316654 0.0126023 0
0.0300121 0.0239579 0
0.0221041 0.0242262 0
0.0196295 0.0209684 0
0.0079725 0.0257632 0
0.0112644 0.0209844 0
0.0196295 0.0209684 0
0.0221041 0.0242262 0
0.0195818 0.0319288 0
0.012714 0.0334201 0
0.0079725 0.0257632 0
0.4665 0.363752 0
0.468471 0.375011 0
0.458801 0.376595 0
0.454683 0.371405 0
0.456535 0.362414 0
0.456795 0.362236 0
0.4665 0.363752 0
0 0.0260718 0
0.0079725 0.0257632 0
0.012714 0.0334201 0
0.0107265 0.0373706 0
0 0.037938 0
0 0.0260718 0
0.373812 0.847314 0
0.380435 0.837345 0
0.384105 0.837505 0
0.389276 0.848828 0
0.385144 0.855992 0
0.381205 0.856831 0
0.373812 0.847314 0
0 0.0128314 0
0.00788258 0.0125653 0
0.0112644 0.0209844 0
0.0079725 0.0257632 0
0 0.0260718 0
0 0.0128314 0
0.779735 0.276656 0
0.784406 0.273381 0
0.79266 0.277948 0
0.792417 0.283478 0
0.786346 0.288771 0
0.780707 0.286988 0
0.779735 0.276656 0
0.44351 0.373731 0
0.454683 0.371405 0
0.458801 0.376595 0
0.455641 0.384856 0
0.45349 0.385769 0
0.444973 0.381774 0
0.44351 0.373731 0
0.384105 0.837505 0
0.388142 0.834156 0
0.400895 0.837614 0
0.401189 0.847497 0
0.389276 0.848828 0
0.384105 0.837505 0
0.0195818 0.0319288 0
0.0221041 0.0242262 0
0.0300121 0.0239579 0
0.0321562 0.025862 0
0.031656 0.034716 0
0.0244651 0.0370967 0
0.0195818 0.0319288 0
0.79266 0.277948 0
0.798579 0.273477 0
0.80609 0.278047 0
0.803728 0.289198 0
0.802714 0.289632 0
0.792417 0.283478 0
0.79266 0.277948 0
0.0300121 0.0239579 0
0.0316654 0.0126023 0
0.0338407 0.0113514 0
0.0380433 0.0124092 0
0.0427017 0.0224954 0
0.0419574 0.0238043 0
0.0321562 0.025862 0
0.0300121 0.0239579 0
0.401189 0.847497 0
0.400895 0.837614 0
0.405126 0.832931 0
0.413958 0.834145 0
0.415146 0.835389 0
0.41313 0.847192 0
0.40243 0.848783 0
0.401189 0.847497 0
0.0454264 0.00746044 0
0.0452632 0 0
0.0578911 0 0
0.057633 0.00949477 0
0.051193 0.0117974 0
0.0454264 0.00746044 0
0.389276 0.848828 0
0.401189 0.847497 0
0.40243 0.848783 0
0.402024 0.856918 0
0.393694 0.863421 0
0.385144 0.855992 0
0.389276 0.848828 0
0.0380433 0.0124092 0
0.0454264 0.00746044 0
0.051193 0.0117974 0
0.0498061 0.0202459 0
0.0427017 0.0224954 0
0.0380433 0.0124092 0
0.478389 0.349365 0
0.483486 0.351102 0
0.484704 0.36097 0
0.479977 0.364208 0
0.470587 0.359984 0
0.470669 0.35462 0
0.478389 0.349365 0
0.78851 0.296108 0
0.786346 0.288771 0
0.792417 0.283478 0
0.802714 0.289632 0
0.799038 0.296703 0
0.78851 0.296108 0
0.0332522 0 0
0.0452632 0 0
0.0454264 0.00746044 0
0.0380433 0.0124092 0
0.0338407 0.0113514 0
0.0332522 0 0
0.382574 0.873733 0
0.378319 0.86086 0
0.381205 0.856831 0
0.385144 0.855992 0
0.393694 0.863421 0
0.393722 0.868126 0
0.385654 0.874195 0
0.382574 0.873733 0
0.0578911 0 0
0.0693912 0 0
0.069548 0.00911771 0
0.061357 0.0122171 0
0.057633 0.00949477 0
0.0578911 0 0
0.4665 0.363752 0
0.470587 0.359984 0
0.479977 0.364208 0
0.47912 0.372967 0
0.468905 0.37529 0
0.468471 0.375011 0
0.4665 0.363752 0
0.0498061 0.0202459 0
0.051193 0.0117974 0
0.057633 0.00949477 0
0.061357 0.0122171 0
0.0618169 0.0200868 0
0.0549851 0.0239783 0
0.0498061 0.0202459 0
0.393694 0.863421 0
0.402024 0.856918 0
0.412785 0.86546 0
0.413041 0.866299 0
0.412922 0.866569 0
0.401707 0.873487 0
0.393722 0.868126 0
0.393694 0.863421 0
0.741009 0.299115 0
0.747998 0.29321 0
0.755535 0.298735 0
0.751653 0.308624 0
0.7421 0.306014 0
0.741009 0.299115 0
0.483486 0.351102 0
0.488641 0.347871 0
0.496891 0.35312 0
0.496305 0.36026 0
0.491708 0.363222 0
0.484704 0.36097 0
0.483486 0.351102 0
0.061357 0.0122171 0
0.069548 0.00911771 0
0.0733017 0.0120247 0
0.0731688 0.0199562 0
0.0671136 0.0229481 0
0.0618169 0.0200868 0
0.061357 0.0122171 0
0.415146 0.835389 0
0.424127 0.835995 0
0.428326 0.846757 0
0.425183 0.850846 0
0.417452 0.851176 0
0.41313 0.847192 0
0.415146 0.835389 0
0.0353999 0.0375413 0
0.031656 0.034716 0
0.0321562 0.025862 0
0.0419574 0.0238043 0
0.0449244 0.0326008 0
0.0353999 0.0375413 0
0.747998 0.29321 0
0.747904 0.288994 0
0.755581 0.283989 0
0.760752 0.286325 0
0.761423 0.29741 0
0.755535 0.298735 0
0.747998 0.29321 0
0.0419574 0.0238043 0
0.0427017 0.0224954 0
0.0498061 0.0202459 0
0.0549851 0.0239783 0
0.0549053 0.0295023 0
0.0484977 0.0344656 0
0.0449244 0.0326008 0
0.0419574 0.0238043 0
0.468905 0.37529 0
0.47912 0.372967 0
0.482521 0.375863 0
0.482875 0.385209 0
0.480212 0.38733 0
0.47057 0.384157 0
0.468905 0.37529 0
0.0671134 0.0313823 0
0.0625258 0.0342659 0
0.0549053 0.0295023 0
0.0549851 0.0239783 0
0.0618169 0.0200868 0
0.0671136 0.0229481 0
0.0671134 0.0313823 0
0.424127 0.835995 0
0.428867 0.831116 0
0.437246 0.832042 0
0.440465 0.837301 0
0.43647 0.845936 0
0.428326 0.846757 0
0.424127 0.835995 0
0.762425 0.297984 0
0.774323 0.293644 0
0.778307 0.300663 0
0.774807 0.30687 0
0.765582 0.306675 0
0.762425 0.297984 0
0 0.037938 0
0.0107265 0.0373706 0
0.0133016 0.0444784 0
0.0113918 0.0481206 0
0 0.0482104 0
0 0.037938 0
0.0195818 0.0319288 0
0.0244651 0.0370967 0
0.0228881 0.0435706 0
0.0133016 0.0444784 0
0.0107265 0.0373706 0
0.012714 0.0334201 0
0.0195818 0.0319288 0
0.492182 0.372815 0
0.495922 0.375675 0
0.495985 0.382891 0
0.490769 0.386992 0
0.482875 0.385209 0
0.482521 0.375863 0
0.492182 0.372815 0
0.417452 0.851176 0
0.425183 0.850846 0
0.428866 0.860495 0
0.425093 0.866335 0
0.413041 0.866299 0
0.412785 0.86546 0
0.417452 0.851176 0
0.755535 0.298735 0
0.761423 0.29741 0
0.762425 0.297984 0
0.765582 0.306675 0
0.762336 0.31218 0
0.752965 0.31104 0
0.751653 0.308624 0
0.755535 0.298735 0
0.0228881 0.0435706 0
0.0244651 0.0370967 0
0.031656 0.034716 0
0.0353999 0.0375413 0
0.0366385 0.0454029 0
0.0353713 0.0466862 0
0.0247668 0.0463511 0
0.0228881 0.0435706 0
0.40243 0.848783 0
0.41313 0.847192 0
0.417452 0.851176 0
0.412785 0.86546 0
0.402024 0.856918 0
0.40243 0.848783 0
0.0113918 0.0481206 0
0.0133016 0.0444784 0
0.0228881 0.0435706 0
0.0247668 0.0463511 0
0.0224659 0.0557351 0
0.0214916 0.0563292 0
0.0132731 0.0543495 0
0.0113918 0.0481206 0
0.496305 0.36026 0
0.504148 0.364023 0
0.504818 0.371868 0
0.495922 0.375675 0
0.492182 0.372815 0
0.491708 0.363222 0
0.496305 0.36026 0
0.752965 0.31104 0
0.762336 0.31218 0
0.764573 0.317772 0
0.761957 0.323112 0
0.751844 0.323755 0
0.749673 0.318881 0
0.752965 0.31104 0
0 0.0482104 0
0.0113918 0.0481206 0
0.0132731 0.0543495 0
0.00918556 0.0591699 0
0 0.0587308 0
0 0.0482104 0
0.428326 0.846757 0
0.43647 0.845936 0
0.441805 0.852429 0
0.438544 0.860766 0
0.428866 0.860495 0
0.425183 0.850846 0
0.428326 0.846757 0
0 0.0587308 0
0.00918556 0.0591699 0
0.0123475 0.0688339 0
0.0114445 0.070327 0
0 0.0712359 0
0 0.0587308 0
0.479977 0.364208 0
0.484704 0.36097 0
0.491708 0.363222 0
0.492182 0.372815 0
0.482521 0.375863 0
0.47912 0.372967 0
0.479977 0.364208 0
0.762336 0.31218 0
0.765582 0.306675 0
0.774807 0.30687 0
0.777936 0.314073 0
0.774946 0.318582 0
0.764573 0.317772 0
0.762336 0.31218 0
0.428866 0.860495 0
0.438544 0.860766 0
0.441914 0.866602 0
0.436575 0.875697 0
0.429177 0.874804 0
0.425093 0.866335 0
0.428866 0.860495 0
0.00918556 0.0591699 0
0.0132731 0.0543495 0
0.0214916 0.0563292 0
0.0204738 0.0667159 0
0.0123475 0.0688339 0
0.00918556 0.0591699 0
0.78851 0.296108 0
0.799038 0.296703 0
0.80152 0.302878 0
0.799187 0.307092 0
0.788779 0.307674 0
0.785693 0.300611 0
0.78851 0.296108 0
0.0224659 0.0557351 0
0.0247668 0.0463511 0
0.0353713 0.0466862 0
0.0350475 0.0567328 0
0.0325156 0.0588751 0
0.0224659 0.0557351 0
0.44101 0.80797 0
0.449913 0.808073 0
0.452683 0.81974 0
0.449894 0.822564 0
0.441779 0.822843 0
0.436693 0.816441 0
0.44101 0.80797 0
0.0204738 0.0667159 0
0.0214916 0.0563292 0
0.0224659 0.0557351 0
0.0325156 0.0588751 0
0.0322862 0.066508 0
0.0249199 0.0701454 0
0.0204738 0.0667159 0
0.247649 0.393276 0
0.253483 0.389009 0
0.261146 0.391467 0
0.262617 0.394194 0
0.26055 0.401042 0
0.25479 0.40325 0
0.248968 0.400519 0
0.247649 0.393276 0
0.449913 0.808073 0
0.453104 0.804407 0
0.461603 0.805291 0
0.465496 0.814169 0
0.46096 0.819917 0
0.452683 0.81974 0
0.449913 0.808073 0
0.775231 0.290129 0
0.780707 0.286988 0
0.786346 0.288771 0
0.78851 0.296108 0
0.785693 0.300611 0
0.778307 0.300663 0
0.774323 0.293644 0
0.775231 0.290129 0
0.0449244 0.0326008 0
0.0484977 0.0344656 0
0.0493592 0.0386489 0
0.0431466 0.0461879 0
0.0366385 0.0454029 0
0.0353999 0.0375413 0
0.0449244 0.0326008 0
0.276307 0.387422 0
0.285091 0.385668 0
0.289354 0.394005 0
0.287267 0.39839 0
0.27668 0.398922 0
0.274023 0.394329 0
0.276307 0.387422 0
0.778307 0.300663 0
0.785693 0.300611 0
0.788779 0.307674 0
0.786154 0.313719 0
0.777936 0.314073 0
0.774807 0.30687 0
0.778307 0.300663 0
0.440465 0.837301 0
0.437246 0.832042 0
0.441779 0.822843 0
0.449894 0.822564 0
0.452956 0.835429 0
0.450555 0.837877 0
0.440465 0.837301 0
0.0431466 0.0461879 0
0.0493592 0.0386489 0
0.0570352 0.0432616 0
0.0534053 0.0530412 0
0.0479526 0.0537335 0
0.0431466 0.0461879 0
0.799038 0.296703 0
0.802714 0.289632 0
0.803728 0.289198 0
0.811815 0.291798 0
0.813335 0.296461 0
0.810012 0.302733 0
0.80152 0.302878 0
0.799038 0.296703 0
0.262617 0.394194 0
0.274023 0.394329 0
0.27668 0.398922 0
0.274708 0.4046 0
0.266805 0.406675 0
0.26055 0.401042 0
0.262617 0.394194 0
0.452683 0.81974 0
0.46096 0.819917 0
0.465354 0.829524 0
0.461256 0.835053 0
0.452956 0.835429 0
0.449894 0.822564 0
0.452683 0.81974 0
0.0484977 0.0344656 0
0.0549053 0.0295023 0
0.0625258 0.0342659 0
0.0615988 0.0418756 0
0.0570352 0.0432616 0
0.0493592 0.0386489 0
0.0484977 0.0344656 0
[...]
CELL_DATA 6400
FIELD FieldData 3
weight 1 6400 float
 0.0607154 0.0606988 0.0606082 0.0607701 0.060788 0.0607243 0.0562482 0.0606534 0.0468693 0.0606428 0.0584574 0.0560332 0.0469448 0.0607982 0.0584401 0.0608481 0.0469168 0.0609022 0.0467309 0.0608947 0.0565763 0.0582399 0.0608327 0.0465552 0.0609603 0.0563024 0.0609506 0.0465454 0.0580163 0.0566105 0.0610041 0.0468697 0.0608729 0.058239 0.0609225 0.0559604 0.0609912 0.0469354 0.0580197 0.0606488 0.060736 0.0559724 0.0466213 0.0579137 0.0608151 0.0466995 0.0607273 0.0562806 0.0576186 0.0606279 0.0466898 0.0605916 0.0562663 0.0577486 0.0464683 0.0606814 0.0579804 0.0608034 0.0472815 0.0607537 0.0556423 0.047314 0.0581507 0.0608957 0.0557238 0.0578608 0.0470541 0.0609375 0.0580789 0.0555364 0.0470848 0.0609644 0.0575491 0.0558415 0.0471641 0.0608691 0.0577297 0.0608276 0.0472139 0.0552987 0.0609075 0.0578021 0.0552256 0.047321 0.0609749 0.0469835 0.0586576 0.0554076 0.0609747 0.0470807 0.0587278 0.0610103 0.0558618 0.0468282 0.0610523 0.0584999 0.0610582 0.0557254 0.0468434 0.0610979 0.0583754 0.0610893 0.0465902 0.0555467 0.058439 0.061042 0.0465988 0.0611325 0.0552464 0.0582513 0.0611234 0.0469279 0.0586204 0.0553829 0.0611387 0.0467629 0.0611411 0.058522 0.0549397 0.0611013 0.0468434 0.0611833 0.0550126 0.0466782 0.0611734 0.0587695 0.0611703 0.0465315 0.0544183 0.0611639 0.0583525 0.0465991 0.0612091 0.0584174 0.0546763 0.0464255 0.061238 0.0582126 0.0546711 0.0610197 0.046596 0.0579336 0.0610239 0.0549468 0.0464952 0.0610801 0.0579437 0.0610812 0.0550021 0.0461651 0.0611203 0.0581803 0.055052 0.0610516 0.0463185 0.0575042 0.0546891 0.0462008 0.0610023 0.057663 0.0610905 0.0544027 0.046501 0.0612008 0.0576857 0.0543397 0.0464514 0.0611632 0.0578683 0.0611989 0.0546626 0.0462611 0.0612338 0.058039 0.0543629 0.0461383 0.0611751 0.0581393 0.0546963 0.0459037 0.0556032 0.0579034 0.0611373 0.0460338 0.0558351 0.0576097 0.0611172 0.0458876 0.0557114 0.0577074 0.0611576 0.0456805 0.05555 0.0574404 0.0612135 0.0456442 0.0552531 0.0605469 0.0459908 0.0571753 0.060652 0.0553061 0.0458318 0.0605836 0.0573418 0.0553858 0.0606639 0.0454768 0.0571749 0.0607433 0.0456707 0.0556011 0.0604188 0.0574722 0.0604863 0.0455414 0.057049 0.0556812 0.0605434 0.0463649 0.0606304 0.0552796 0.0568378 0.046474 0.0608244 0.0572726 0.0553585 0.0608179 0.0463833 0.060896 0.0574519 0.046125 0.0549649 0.0609322 0.0461984 0.0569741 0.0550438 0.0607155 0.0460801 0.0571666 0.0547221 0.0607424 0.0464962 0.0608787 0.056895 0.0546449 0.0463184 0.0607876 0.0569388 0.0543256 0.0608366 0.0462021 0.0567809 0.0543677 0.0604282 0.0460622 0.0603252 0.0565452 0.0605164 0.0604813 0.0549455 0.0458793 0.0565534 0.0603787 0.0458857 0.0602103 0.0562026 0.0547239 0.0602502 0.0458093 0.0601267 0.0564503 0.0550339 0.0456026 0.0603292 0.0543505 0.0562347 0.0455641 0.0605682 0.0546349 0.0566912 0.0606094 0.045922 0.0546775 0.0607598 0.0457651 0.0565801 0.0543349 0.0606452 0.0454071 0.0563552 0.0606937 0.0456216 0.0541429 0.056083 0.0604889 0.0453551 0.0543392 0.0562698 0.0604078 0.045467 0.0536547 0.0572289 0.0605584 0.0453139 0.0573815 0.0539932 0.0610313 0.0574312 0.0453711 0.0609584 0.053976 0.0451951 0.061077 0.0571375 0.0538328 0.0449853 0.0610052 0.0571007 0.05364 0.0449681 0.0609112 0.0568076 0.0609405 0.0451423 0.0541436 0.0609881 0.0568663 0.0451463 0.0539908 0.0610344 0.0573533 0.061059 0.0453945 0.0538645 0.0571632 0.0448017 0.0611422 0.0536687 0.0570641 0.0610697 0.0448672 0.0533206 0.0567858 0.0443643 0.0611025 0.0532194 0.0609536 0.044621 0.0568432 0.0535279 0.0609927 0.0444177 0.0533027 0.057007 0.0608365 0.0446689 0.0563393 0.060695 0.044078 0.0529151 0.0566395 0.0607515 0.0440537 0.060897 0.0564933 0.0444683 0.0529573 0.0608069 0.0565627 0.0447014 0.0529639 0.0606185 0.0443602 0.0560273 0.0606923 0.0440932 0.0535572 0.0440659 0.0561868 0.0606448 0.0533622 0.0440349 0.0607449 0.0559605 0.0533881 0.0452489 0.0608548 0.0562509 0.0450545 0.0608018 0.0529305 0.056458 0.0609045 0.0452957 0.0532207 0.05657 0.0609342 0.0448727 0.0530601 0.0564789 0.0608401 0.0449815 0.0540488 0.0607033 0.044699 0.056169 0.0540578 0.0450755 0.0562175 0.0607349 0.0537493 0.0450873 0.0612097 0.0537329 0.055993 0.0447047 0.0612231 0.0534513 0.0612678 0.0447775 0.0586099 0.0612372 0.0537344 0.0447268 0.0612612 0.0583801 0.0540312 0.0445303 0.0612665 0.0443249 0.0540355 0.0586514 0.0612636 0.0443722 0.061295 0.0540378 0.0440248 0.0612942 0.0585687 0.0612887 0.0537125 0.0439755 0.0583567 0.0613012 0.0443488 0.0537222 0.0613342 0.058129 0.0613183 0.0443631 0.053439 0.0613436 0.0439815 0.0580317 0.0534248 0.061362 0.0439907 0.0613268 0.0581222 0.0439581 0.052894 0.0613281 0.0584308 0.0463368 0.061356 0.05311 0.0613758 0.0582632 0.0462433 0.0531268 0.0613577 0.0460753 0.0583899 0.0613827 0.0528337 0.0461059 0.0612679 0.0581166 0.0534022 0.0463294 0.0612346 0.0579704 0.053403 0.0612457 0.0463722 0.0581743 0.0531186 0.0612942 0.0461911 0.0578909 0.0531059 0.0612249 0.0460397 0.0578701 0.0611944 0.0528061 0.0459428 0.061257 0.0578573 0.0530445 0.0612685 0.0458867 0.0613323 0.0575995 0.0527905 0.0457919 0.0613098 0.057403 0.0613414 0.0455861 0.0553426 0.0613792 0.0613537 0.0613066 0.0613087 0.0613686 0.0613857 0.0613908 0.0614093 0.0614036 0.0614087 0.0614276 0.0454611 0.0614324 0.0576342 0.0614555 0.0556282 0.0456981 0.0614316 0.0614133 0.0575119 0.045823 0.0614391 0.0556062 0.0577519 0.0457149 0.0614801 0.0614508 0.0550383 0.0455193 0.0576071 0.0614491 0.0453488 0.0576901 0.0552917 0.061473 0.0454464 0.0574587 0.0556339 0.0614757 0.0463271 0.0573631 0.0555975 0.0614951 0.0613894 0.0461364 0.0583174 0.0557355 0.0614002 0.0463475 0.058192 0.0614223 0.0553022 0.0614128 0.0460849 0.0580752 0.0613668 0.0551154 0.0579968 0.0460603 0.0613428 0.0552449 0.0613714 0.0458809 0.0578233 0.0554215 0.0614455 0.0580066 0.0463053 0.0614601 0.0546973 0.0581487 0.0614766 0.0464096 0.054996 0.0614343 0.0582598 0.0613912 0.0462178 0.0549562 0.0578628 0.0460421 0.0614467 0.0546772 0.0578908 0.061414 0.045977 0.0577887 0.0544318 0.0611725 0.0458089 0.0576159 0.0543658 0.0612146 0.0457332 0.0576258 0.0611437 0.0543147 0.057367 0.0454782 0.0610376 0.0548144 0.0454273 0.0575158 0.0611076 0.0546336 0.0610748 0.0578227 0.0455536 0.0549147 0.0611559 0.0576717 0.0457512 0.0610847 0.0544432 0.0612134 0.0575065 0.0456822 0.061215 0.0542875 0.057304 0.0612685 0.0452682 0.0545812 0.0612626 0.057296 0.0452645 0.0554093 0.0611122 0.0569615 0.0454891 0.0612363 0.0557239 0.0571 0.0611523 0.0452389 0.0574998 0.0611826 0.0556254 0.0451618 0.0570895 0.0610037 0.0449275 0.055222 0.0573343 0.0609707 0.0447843 0.0610176 0.0569133 0.0550826 0.0451746 0.0609249 0.0571101 0.0553644 0.0449833 0.0608797 0.0572231 0.045124 0.060817 0.0550269 0.0568294 0.044845 0.0567812 0.0556729 0.0607802 0.0446118 0.0571037 0.0608409 0.0447721 0.0556871 0.0573037 0.0610963 0.0444214 0.0610131 0.0572346 0.0556176 0.0445733 0.0610569 0.0569509 0.044515 0.0553711 0.0609443 0.0439271 0.0567422 0.0608521 0.0550535 0.0442348 0.0566527 0.0609331 0.0441951 0.0552639 0.0609889 0.0568067 0.0439881 0.0547383 0.0442401 0.057256 0.060891 0.0443567 0.0570962 0.0549024 0.0612904 0.043874 0.0613278 0.0570799 0.0546939 0.0439567 0.0612751 0.0438703 0.0569531 0.0613407 0.0543484 0.0612182 0.0450718 0.0566706 0.0545685 0.061289 0.0452161 0.0565812 0.0612099 0.0543024 0.061244 0.0451763 0.0567901 0.0613675 0.0547153 0.0448743 0.0562347 0.0613968 0.0445478 0.0549034 0.0565057 0.0613348 0.0447148 0.056419 0.061248 0.0545965 0.0448588 0.061311 0.0559036 0.0543867 0.0449779 0.0612867 0.0561378 0.0611441 0.0448626 0.0543885 0.0610685 0.0560833 0.0446482 0.0542451 0.0611333 0.0441874 0.0563448 0.0539958 0.060982 0.0443653 0.0564626 0.0610477 0.0541181 0.0441487 0.0562459 0.0539823 0.0609478 0.04384 0.0561679 0.061098 0.0438875 0.0536663 0.0557958 0.0611723 0.044293 0.0537369 0.0560177 0.0611759 0.0444782 0.0536785 0.0558504 0.044501 0.0612281 0.0541187 0.0438204 0.0611483 0.0556274 0.0439098 0.0567721 0.0609814 0.0438089 0.056945 0.04415 0.0567384 0.0610297 0.0563192 0.0609972 0.0525993 0.0565293 0.0610837 0.0600219 0.0562094 0.0523285 0.0601377 0.0564187 0.0525196 0.0601305 0.0566459 0.0602747 0.0519924 0.0597678 0.059907 0.0521939 0.0540075 0.0599711 0.0599662 0.0524829 0.0537234 0.0603499 0.0534163 0.0526584 0.0602948 0.053689 0.0603729 0.0524276 0.0533911 0.0604361 0.0523319 0.0533436 0.060118 0.0602068 0.0520476 0.0527828 0.0600308 0.0530838 0.0602078 0.0520776 0.0598044 0.0529861 0.0596098 0.0522184 0.0596566 0.0534086 0.0598356 0.051709 0.0531608 0.0594474 0.059259 0.0518968 0.0530777 0.0594644 0.0530618 0.0596343 0.0514275 0.0595209 0.0528644 0.051601 0.0597557 0.0599464 0.0527161 0.0514397 0.0600355 0.0539903 0.0516591 0.059916 0.0540353 0.0596258 0.0517492 0.0598155 0.0539934 0.0517462 0.0597193 0.0536767 0.0519323 0.060505 0.0536821 0.0513648 0.0605754 0.0540679 0.0604356 0.051459 0.0539792 0.0605062 0.052528 0.0536716 0.0602718 0.0602844 0.0537091 0.0527239 0.0603471 0.0536682 0.0604132 0.0522366 0.053404 0.0604691 0.0520902 0.060569 0.0530732 0.0523924 0.0533698 0.0605015 0.0522092 0.0533787 0.0606475 0.0525161 0.0533469 0.0606162 0.0526502 0.0603138 0.0527984 0.0603726 0.0525896 0.0530007 0.0599989 0.0601253 0.0523292 0.0527385 0.060077 0.0523035 0.0533542 0.0601637 0.0519319 0.0598169 0.0530863 0.0517873 0.0599027 0.0531485 0.0598989 0.0518876 0.0530347 0.060028 0.0515975 0.0601675 0.0527396 0.0601742 0.0515446 0.0601231 0.0520377 0.0528391 0.0602529 0.0517507 0.0617116 0.0598494 0.0617304 0.0520257 0.0600133 0.0617263 0.0617062 0.0514123 0.0599528 0.0617445 0.0593091 0.0516049 0.0617465 0.0590841 0.0617383 0.0514719 0.0591044 0.0617415 0.0593073 0.0517401 0.0617235 0.0586593 0.0617044 0.0588904 0.0617216 0.051165 0.0588727 0.0616992 0.0588983 0.0617369 0.0512805 0.0617314 0.0591374 0.0617373 0.0509079 0.0594121 0.0617326 0.0595957 0.0617289 0.0509876 0.059356 0.0617346 0.051119 0.0617307 0.059494 0.0617346 0.051175 0.059083 0.0617076 0.0590143 0.0511261 0.0616803 0.0592522 0.0509034 0.0616828 0.0591797 0.0617124 0.0584389 0.0508307 0.06167 0.0584692 0.0508755 0.0617198 0.0586651 0.0617233 0.0506495 0.0587506 0.0617161 0.0582102 0.0504818 0.0616679 0.0616989 0.0582174 0.0616927 0.0506753 0.0582697 0.0616613 0.0585148 0.0502153 0.0616889 0.0588059 0.0616851 0.0589673 0.0503929 0.061701 0.0588632 0.0616755 0.0503832 0.0616906 0.0585674 0.0617254 0.050673 0.0586695 0.0617019 0.0505391 0.0586364 0.0617032 0.0616763 0.0505959 0.0597047 0.0616608 0.0594676 0.0503188 0.0616393 0.0616485 0.0595386 0.0503391 0.0616636 0.0597234 0.0616922 0.0593057 0.051345 0.0616964 0.0616845 0.0593197 0.0616789 0.0595418 0.0616727 0.0596494 0.0617122 0.0617192 0.0598372 0.0617025 0.061693 0.0596639 0.0616563 0.0616863 0.059401 0.0616745 0.0594864 0.0616505 0.0616883 0.0595109 0.0616686 0.0590848 0.0616784 0.0616395 0.0592224 0.0616317 0.05908 0.0616622 0.0586131 0.0588377 0.0513081 0.0589338 0.0510803 0.0587141 0.0510394 0.0592397 0.0507886 0.0591151 0.0508371 0.0593219 0.0590843 0.051168 0.0589943 0.0513131 0.0511759 0.0588155 0.0509114 0.0588878 0.0508639 0.0605902 0.0509713 0.0606803 0.0505484 0.0607176 0.0505504 0.0606051 0.0506551 0.0604085 0.0502927 0.0605445 0.0604629 0.0604721 0.0606868 0.0616199 0.0607323 0.0616517 0.0502771 0.0607653 0.0615829 0.0504099 0.0608093 0.0616337 0.060488 0.0507273 0.0616305 0.0604963 0.0504795 0.0615784 0.0606449 0.0506028 0.0615143 0.0605817 0.0502421 0.0615066 0.0602662 0.0615731 0.0503297 0.0601884 0.0616232 0.0603272 0.0616223 0.0526363 0.0601114 0.0615077 0.060011 0.0525598 0.0615664 0.0603265 0.0615711 0.060272 0.0614984 0.0523039 0.0603515 0.0604294 0.0614432 0.052006 0.0600048 0.0614331 0.0522687 0.060066 0.0613433 0.0601677 0.0525352 0.0613469 0.0600432 0.0523642 0.0612554 0.0601906 0.0612339 0.0608312 0.052656 0.0612417 0.0608684 0.06143 0.0526187 0.0613385 0.0608637 0.0614323 0.052059 0.0607309 0.0614185 0.0522369 0.0613342 0.0606072 0.0612449 0.0523182 0.0605957 0.0612263 0.0519948 0.0606045 0.0565345 0.061616 0.0607223 0.0517228 0.0565296 0.0615568 0.0562619 0.0517151 0.0616089 0.0608892 0.0614887 0.0563267 0.0519307 0.0607872 0.0615581 0.0560801 0.0614879 0.0514477 0.0561812 0.0609023 0.0615997 0.0516409 0.0559358 0.0615894 0.0607587 0.0514273 0.0559184 0.0615771 0.0606473 0.0517688 0.0615263 0.0559748 0.0615374 0.060664 0.0520171 0.0558891 0.0615446 0.0603276 0.0614799 0.0515023 0.0604467 0.055577 0.060464 0.0614607 0.0556737 0.0517205 0.0603207 0.0559298 0.0614725 0.0602708 0.0614198 0.0557059 0.0526947 0.0601254 0.0614168 0.0555918 0.0613194 0.0526053 0.0601651 0.0556483 0.0613279 0.0521026 0.0604865 0.0612294 0.0554648 0.0523873 0.0603372 0.0612261 0.0553108 0.0613169 0.0550195 0.0523067 0.0613087 0.0603936 0.0553154 0.0613963 0.0605162 0.0526549 0.061405 0.0601645 0.055912 0.0613787 0.05261 0.0600921 0.0558896 0.0612057 0.0602356 0.0523704 0.061295 0.0559428 0.0612103 0.0597509 0.0523757 0.0555889 0.0599237 0.061189 0.05558 0.0523043 0.0616501 0.0597817 0.0518144 0.0616243 0.055295 0.0598288 0.0616354 0.061608 0.0520164 0.0595857 0.0552547 0.061661 0.059662 0.0515486 0.0552773 0.061666 0.059597 0.0517324 0.0557504 0.0616528 0.0598684 0.0616505 0.055961 0.0515551 0.0598895 0.0615924 0.0616038 0.0557531 0.0597356 0.0518166 0.06162 0.0615849 0.0596681 0.0554559 0.0520111 0.0615746 0.0595383 0.0616329 0.0556207 0.0520835 0.0591791 0.0616159 0.0616336 0.0553014 0.0593514 0.0520854 0.0615909 0.0592202 0.0549568 0.051706 0.059426 0.0615981 0.0549551 0.0616118 0.059421 0.0515466 0.061659 0.0546701 0.0616465 0.0589124 0.051177 0.0616275 0.0546265 0.0589912 0.0511442 0.061607 0.0546377 0.0510908 0.0616347 0.0590205 0.0549128 0.0616231 0.0592488 0.0508649 0.0616071 0.0551591 0.0594712 0.0615911 0.050937 0.0615899 0.0593171 0.0549079 0.0616071 0.0513597 0.0590353 0.0615709 0.0549146 0.0512183 0.0615852 0.0590985 0.0546055 0.0514164 0.0615716 0.0591161 0.0545576 0.0509581 0.0615315 0.0615525 0.0598983 0.0510896 0.0558571 0.0615658 0.0599928 0.0506603 0.0555663 0.0615493 0.0615032 0.0597948 0.0508143 0.0556564 0.0615222 0.0599698 0.061571 0.0554658 0.0504227 0.0615379 0.0595284 0.0615539 0.0505448 0.0553228 0.0615498 0.0595586 0.0615148 0.0505558 0.0552275 0.0597252 0.0614788 0.0503577 0.0555508 0.059635 0.0614968 0.0507163 0.0558902 0.0614547 0.0599344 0.0508178 0.0615189 0.0558747 0.0503262 0.0615204 0.059884 0.0615361 0.0505348 0.0555655 0.060049 0.0615004 0.0505209 0.0556877 0.061564 0.0598389 0.0512664 0.0615784 0.0597458 0.0552249 0.0615572 0.0595327 0.0514346 0.055106 0.0615446 0.0615487 0.0596023 0.0510192 0.0553 0.0615134 0.0596791 0.0548984 0.0510864 0.061501 0.0593186 0.0615332 0.0551614 0.0512865 0.0593458 0.0615254 0.0550207 0.0514265 0.0594035 0.0615034 0.0546327 0.0615081 0.0513029 0.0591693 0.0615064 0.0544211 0.0614992 0.0511029 0.0588881 0.0614718 0.0545385 0.0510528 0.059131 0.0614713 0.0547157 0.0507966 0.0614725 0.0589388 0.0549159 0.0508007 0.0615687 0.0588992 0.0549492 0.0505612 0.0615516 0.0593109 0.0614949 0.0505953 0.0545919 0.0594473 0.0615358 0.0508709 0.0546463 0.0615085 0.0591086 0.0508108 0.0614487 0.0544007 0.061437 0.0589501 0.0508145 0.0541339 0.0614227 0.0505767 0.0614579 0.0543017 0.0589707 0.0615181 0.0505801 0.0591936 0.0615005 0.0543729 0.0614032 0.0499543 0.061502 0.0614721 0.0538319 0.0613838 0.0614605 0.0501487 0.0539446 0.0614373 0.0614809 0.0501369 0.0615029 0.0540795 0.0613646 0.0615242 0.0613548 0.049717 0.054261 0.0615002 0.061274 0.0537335 0.0498719 0.0612615 0.0615151 0.0615181 0.0612765 0.0539852 0.0499105 0.0615426 0.0539447 0.0615365 0.0611723 0.0496996 0.0615197 0.061162 0.0535097 0.0500279 0.0615433 0.0613364 0.0615434 0.0534733 0.0612447 0.0501754 0.0615623 0.0536299 0.0613252 0.0615593 0.0500917 0.0613023 0.0615602 0.0532023 0.0497441 0.0611326 0.0615864 0.053284 0.0611718 0.0615761 0.0498616 0.0529625 0.061495 0.0611294 0.0494586 0.0533349 0.0612241 0.0614791 0.0494539 0.0614214 0.0536311 0.0614935 0.0496343 0.0533362 0.0615143 0.06148 0.0614004 0.0615065 0.0493132 0.0531678 0.0614655 0.0614651 0.0613657 0.0615381 0.0529854 0.0615665 0.0613545 0.0491768 0.061326 0.0615627 0.0530636 0.0492266 0.061529 0.061455 0.0542112 0.0494912 0.0614181 0.0614868 0.0615392 0.0494698 0.0542871 0.0614362 0.0615664 0.0541271 0.0496278 0.0613825 0.0615652 0.0613615 0.0539324 0.0492168 0.0615996 0.0538828 0.0615812 0.0492772 0.0613265 0.0616139 0.0542616 0.0615823 0.0613021 0.0494145 0.0612853 0.0615999 0.0541864 0.0500042 0.06121 0.0616145 0.0500254 0.0543343 0.0612726 0.061633 0.0616064 0.0501599 0.061109 0.0538999 0.061623 0.0611929 0.0616373 0.0497901 0.0539976 0.0610943 0.0616526 0.0497549 0.0537037 0.0612361 0.0616236 0.0499127 0.061645 0.0536128 0.0611604 0.0616532 0.0500799 0.0533093 0.061245 0.0616668 0.0498635 0.0536383 0.0616583 0.0610517 0.0611649 0.0499611 0.0536051 0.0615897 0.0611348 0.0495416 0.0616217 0.0533467 0.0495876 0.0610395 0.0616264 0.0616112 0.0529782 0.0492445 0.0610074 0.0615423 0.0493686 0.0530795 0.0615811 0.0611316 0.0495842 0.0615953 0.0535782 0.0615566 0.0611298 0.0496936 0.0532659 0.0615717 0.0610007 0.0497084 0.0533196 0.0616404 0.0616405 0.0494086 0.0535394 0.0609021 0.0616538 0.0495104 0.0530547 0.0608645 0.0616091 0.0494013 0.0608502 0.0615922 0.052922 0.0610163 0.0489696 0.0616005 0.0611308 0.049099 0.0528885 0.0616414 0.0611202 0.0616264 0.0555995 0.0487558 0.0609978 0.0614447 0.0487139 0.0557444 0.0608781 0.0614145 0.0487695 0.0609965 0.0554092 0.061446 0.0489036 0.0608548 0.0553794 0.0489954 0.0613691 0.060596 0.0613418 0.055066 0.0490334 0.0607484 0.061396 0.0552712 0.0491133 0.0607093 0.0613134 0.0555158 0.0488254 0.0614564 0.0605461 0.0552231 0.0488999 0.0607196 0.0615035 0.0553282 0.0485191 0.060442 0.0615057 0.0555522 0.0614597 0.0603379 0.0485343 0.0613352 0.0552029 0.0603953 0.0485554 0.0613969 0.0605599 0.0614069 0.0548951 0.0483084 0.060712 0.0613656 0.0550069 0.060559 0.0483747 0.0612824 0.060556 0.0549807 0.0607083 0.0483305 0.0612211 0.0547913 0.0603801 0.0612538 0.0486201 0.0547644 0.0603946 0.0486683 0.0611214 0.0611163 0.0544835 0.0484184 0.0610459 0.0611104 0.05462 0.0611542 0.0484483 0.0611024 0.0544596 0.0489872 0.0610716 0.0609793 0.049177 0.0612696 0.0608639 0.0542951 0.0613462 0.0491563 0.0608425 0.0545594 0.0612822 0.0609779 0.0487955 0.0611896 0.0548801 0.0611015 0.0611817 0.0489455 0.0545925 0.0610003 0.0610892 0.0492132 0.0612024 0.0541923 0.0610754 0.0492554 0.0608496 0.0611055 0.0542869 0.0490209 0.0615065 0.0609577 0.0543143 0.0489591 0.061522 0.0488166 0.055266 0.060949 0.0614366 0.0614622 0.0553375 0.0490143 0.0608152 0.0613932 0.04874 0.0550602 0.0608162 0.0614084 0.0607172 0.0485994 0.0614763 0.0549466 0.0607259 0.0615542 0.0487335 0.054738 0.0606839 0.0615385 0.0550965 0.0484012 0.06152 0.0605399 0.0546933 0.0615663 0.0603714 0.0549976 0.0483504 0.061494 0.0547139 0.060397 0.0614357 0.0485269 0.0548004 0.0614181 0.0603565 0.0543904 0.0487821 0.0605189 0.0614693 0.0544002 0.0486292 0.0607045 0.0613072 0.0543674 0.0613322 0.0484245 0.0606687 0.0612447 0.0546671 0.0485494 0.0606754 0.0612273 0.0546372 0.0605173 0.0485572 0.0611206 0.0544122 0.0603539 0.0611419 0.0501599 0.0605066 0.0540616 0.0613407 0.0502553 0.0541021 0.0603346 0.061342 0.0501372 0.0541311 0.0613749 0.0601994 0.054452 0.0499624 0.0611579 0.054074 0.0600421 0.0612584 0.0498279 0.054065 0.0602002 0.0611759 0.0499013 0.0538436 0.0598397 0.0611645 0.0500675 0.0537297 0.0612644 0.0534632 0.050263 0.0599958 0.0616385 0.0537651 0.0498027 0.0616661 0.059815 0.0540266 0.0616552 0.0500389 0.0616963 0.0541719 0.0601895 0.0498327 0.0616823 0.0600105 0.0536415 0.0616707 0.0496155 0.0616832 0.0602023 0.0538352 0.0496685 0.0616754 0.0539042 0.0600113 0.0497295 0.0616957 0.0597987 0.0535955 0.0617028 0.0494029 0.06169 0.0599967 0.0537971 0.0617024 0.0494763 0.0616757 0.059798 0.0538793 0.0495607 0.0617073 0.0593851 0.053993 0.0616863 0.0494674 0.0617162 0.0534792 0.0496658 0.0596077 0.0617116 0.0534328 0.049323 0.0617254 0.0593961 0.0536293 0.0596264 0.0494469 0.0616676 0.0533884 0.0616783 0.0502941 0.0616935 0.0531539 0.0591198 0.050