# vtk DataFile Version 3.0
vtk output
ASCII
DATASET UNSTRUCTURED_GRID
POINTS 34368 float
0 0 0
0.133167 0 0
0.385248 0.293784 0
0.763739 0.748071 0
0.962299 1 0
0 1 0
0 0 0
0 0 0
0.11088 0 0
0.376895 0.294247 0
0.766348 0.73767 0
0.984072 1 0
0 1 0
0 0 0
0 0.076963 0
0.178477 0.236915 0
0.67965 0.697181 0
0.986663 1 0
0 1 0
0 0.076963 0
0 0.0843286 0
0.175307 0.236825 0
0.681885 0.688387 0
1 0.993467 0
1 1 0
0 1 0
0 0.0843286 0
0 0 0
1 0 0
1 1 0
0 1 0
0 0 0
0 0 0
0.0138971 0 0
0.29188 0.272248 0
0.690897 0.673978 0
1 0.997318 0
1 1 0
0 1 0
0 0 0
0 0 0
1 0 0
1 1 0
0 1 0
0 0 0
0.678602 0 0
1 0 0
1 0.569241 0
0.88823 0.382949 0
0.746468 0.129714 0
0.678602 0 0
0 0 0
1 0 0
1 1 0
0 1 0
0 0 0
0 0 0
1 0 0
1 1 0
0 1 0
0 0 0
0 0 0
1 0 0
1 1 0
0 1 0
0 0 0
0 0.0626787 0
0.262716 0.252476 0
0.932014 0.751953 0
1 0.805143 0
1 1 0
0 1 0
0 0.0626787 0
0 0 0
1 0 0
1 1 0
0 1 0
0 0 0
0.702884 0 0
1 0 0
1 0.575919 0
0.868587 0.332188 0
0.746826 0.0918749 0
0.702884 0 0
0 0 0
1 0 0
1 1 0
0 1 0
0 0 0
0 0 0
1 0 0
1 1 0
0 1 0
0 0 0
0 0 0
1 0 0
1 1 0
0 1 0
0 0 0
0 0.0516007 0
0.300852 0.255422 0
0.68279 0.523518 0
1 0.755465 0
1 1 0
0 1 0
0 0.0516007 0
0.689948 0 0
1 0 0
1 0.427286 0
0.9335 0.340781 0
0.785173 0.138184 0
0.702526 0.0185844 0
0.689948 0 0
0 0 0
1 0 0
1 1 0
0 1 0
0 0 0
0 0.0584149 0
0.678467 0.488335 0
0.70836 0.508034 0
1 0.706766 0
1 1 0
0 1 0
0 0.0584149 0
0 0 0
1 0 0
1 1 0
0 1 0
0 0 0
0 0 0
1 0 0
1 1 0
0 1 0
0 0 0
0.651392 0 0
1 0 0
1 0.563859 0
0.863943 0.35837 0
0.826414 0.298658 0
0.651392 0 0
0 0 0
1 0 0
1 1 0
0 1 0
0 0 0
0 0.0777139 0
0.0584851 0.12074 0
0.731402 0.626361 0
0.734403 0.628679 0
1 0.841436 0
1 1 0
0 1 0
0 0.0777139 0
0 0 0
1 0 0
1 1 0
0 1 0
0 0 0
0 0 0
1 0 0
1 1 0
0 1 0
0 0 0
0.676919 0 0
1 0 0
1 0.505072 0
0.676919 0 0
0 0.140236 0
0.25453 0.276681 0
0.98624 0.684617 0
1 0.692632 0
1 1 0
0 1 0
0 0.140236 0
0 0 0
1 0 0
1 1 0
0 1 0
0 0 0
0 0 0
1 0 0
1 1 0
0 1 0
0 0 0
0.689496 0 0
1 0 0
1 0.512983 0
0.689496 0 0
0.771523 0 0
1 0 0
1 0.530965 0
0.867077 0.23365 0
0.777461 0.0155604 0
0.771523 0 0
0 0 0
1 0 0
1 1 0
0 1 0
0 0 0
0 0 0
1 0 0
1 1 0
0 1 0
0 0 0
0 0 0
1 0 0
1 1 0
0 1 0
0 0 0
0 0.0808826 0
0.282906 0.260708 0
0.68268 0.523878 0
1 0.741659 0
1 1 0
0 1 0
0 0.0808826 0
0 0 0
1 0 0
1 1 0
0 1 0
0 0 0
0.781752 0 0
1 0 0
1 0.542993 0
0.870825 0.233409 0
0.783248 0.0042199 0
0.781752 0 0
0 0 0
1 0 0
1 1 0
0 1 0
0 0 0
0 0 0
1 0 0
1 1 0
0 1 0
0 0 0
0 0 0
1 0 0
1 1 0
0 1 0
0 0 0
0.820428 0 0
1 0 0
1 0.435209 0
0.912577 0.232739 0
0.820428 0 0
0 0.0631563 0
0.0700423 0.102927 0
0.213345 0.186212 0
1 0.656921 0
1 1 0
0 1 0
0 0.0631563 0
0 0 0
1 0 0
1 1 0
0 1 0
0 0 0
0 0 0
1 0 0
1 1 0
0 1 0
0 0 0
0.807201 0 0
1 0 0
1 0.424638 0
0.909016 0.232839 0
0.807201 0 0
0 0.0722331 0
0.657247 0.424685 0
1 0.624242 0
1 1 0
0 1 0
0 0.0722331 0
0 0 0
1 0 0
1 1 0
0 1 0
0 0 0
0 0 0
1 0 0
1 1 0
0 1 0
0 0 0
0 0.0796532 0
0.679603 0.484958 0
0.70932 0.503404 0
1 0.690134 0
1 1 0
0 1 0
0 0.0796532 0
0 0 0
1 0 0
1 1 0
0 1 0
0 0 0
0 0 0
1 0 0
1 1 0
0 1 0
0 0 0
0 0 0
1 0 0
1 1 0
0 1 0
0 0 0
0 0 0
1 0 0
1 1 0
0 1 0
0 0 0
0 0.0843586 0
0.0395703 0.105591 0
0.194474 0.19065 0
1 0.646057 0
1 1 0
0 1 0
0 0.0843586 0
0.677902 0 0
1 0 0
1 0.334749 0
0.712371 0.0388223 0
0.677902 0 0
0 0 0
1 0 0
1 1 0
0 1 0
0 0 0
0 0 0
1 0 0
1 1 0
0 1 0
0 0 0
0 0 0
1 0 0
1 1 0
0 1 0
0 0 0
0 0 0
1 0 0
1 1 0
0 1 0
0 0 0
0.753694 0 0
1 0 0
1 0.638442 0
0.853741 0.270925 0
0.753694 0 0
0 0 0
1 0 0
1 1 0
0 1 0
0 0 0
0 0 0
1 0 0
1 1 0
0 1 0
0 0 0
0 0 0
1 0 0
1 1 0
0 1 0
0 0 0
0.793395 0 0
1 0 0
1 0.55991 0
0.874779 0.233155 0
0.793395 0 0
0 0 0
1 0 0
1 1 0
0 1 0
0 0 0
0 0 0
1 0 0
1 1 0
0 1 0
0 0 0
0 0 0
1 0 0
1 1 0
0 1 0
0 0 0
0 0 0
1 0 0
1 1 0
0 1 0
0 0 0
0 0 0
0.239756 0 0
0.463136 0.279808 0
0.844833 0.771308 0
1 0.979448 0
1 1 0
0 1 0
0 0 0
0 0 0
1 0 0
1 1 0
0 1 0
0 0 0
0 0 0
1 0 0
1 1 0
0 1 0
0 0 0
0.842647 0 0
1 0 0
1 0.355873 0
0.924757 0.193526 0
0.842647 0 0
0 0 0
1 0 0
1 1 0
0 1 0
0 0 0
0 0 0
1 0 0
1 1 0
0 1 0
0 0 0
0 0 0
1 0 0
1 1 0
0 1 0
0 0 0
0.87822 0 0
1 0 0
1 0.267503 0
0.95375 0.176641 0
0.87822 0 0
0 0 0
0.146877 0 0
0.200446 0.0605549 0
0.720423 0.660308 0
0.779294 0.730819 0
0.99653 1 0
0 1 0
0 0 0
0 0 0
1 0 0
1 1 0
0 1 0
0 0 0
0 0 0
1 0 0
1 1 0
0 1 0
0 0 0
0.866908 0 0
1 0 0
1 0.269059 0
0.949587 0.177486 0
0.866908 0 0
0 0 0
1 0 0
1 1 0
0 1 0
0 0 0
0 0 0
1 0 0
1 1 0
0 1 0
0 0 0
0 0.133717 0
0.625313 0.520276 0
0.724987 0.58442 0
1 0.767392 0
1 1 0
0 1 0
0 0.133717 0
0 0 0
1 0 0
1 1 0
0 1 0
0 0 0
0.83236 0 0
1 0 0
1 0.443773 0
0.916378 0.232633 0
0.83236 0 0
0 0 0
0.009068 0 0
0 0.0109875 0
0 0 0
0 0 0
1 0 0
1 1 0
0 1 0
0 0 0
0 0 0
1 0 0
1 1 0
0 1 0
0 0 0
0 0 0
0.0729194 0 0
0.361061 0.295124 0
0.76946 0.725262 0
1 0.982511 0
1 1 0
0 1 0
0 0 0
0 0 0
1 0 0
1 1 0
0 1 0
0 0 0
0.881891 0 0
1 0 0
1 0.282063 0
0.950781 0.177244 0
0.881891 0 0
0 0 0
1 0 0
1 1 0
0 1 0
0 0 0
0 0 0
1 0 0
1 1 0
0 1 0
0 0 0
0 0 0
1 0 0
1 1 0
0 1 0
0 0 0
0 0.105534 0
0.0167603 0.116931 0
0.730588 0.612248 0
0.735525 0.615774 0
1 0.811974 0
1 1 0
0 1 0
0 0.105534 0
0 0 0
1 0 0
1 1 0
0 1 0
0 0 0
0.854634 0 0
1 0 0
1 0.359272 0
0.929295 0.192892 0
0.854634 0 0
0 0 0
1 0 0
1 1 0
0 1 0
0 0 0
0 0 0
1 0 0
1 1 0
0 1 0
0 0 0
0 0 0
1 0 0
1 1 0
0 1 0
0 0 0
0 0 0
0.114543 0 0
0.160821 0.0486373 0
0.726107 0.654098 0
0.783664 0.718116 0
1 0.967196 0
1 1 0
0 1 0
0 0 0
0 0 0
1 0 0
1 1 0
0 1 0
0 0 0
0.705189 0 0
1 0 0
1 0.389967 0
0.99466 0.383469 0
0.823966 0.165947 0
0.705189 0 0
0 0.118633 0
0.223214 0.258017 0
0.924403 0.709891 0
1 0.761249 0
1 1 0
0 1 0
0 0.118633 0
0 0 0
1 0 0
1 1 0
0 1 0
0 0 0
0 0 0
0.00660804 0 0
0 0.00625415 0
0 0 0
0 0 0
1 0 0
1 1 0
0 1 0
0 0 0
0 0 0
1 0 0
1 1 0
0 1 0
0 0 0
0 0.10507 0
0.234053 0.256496 0
0.925992 0.718674 0
1 0.770726 0
1 1 0
0 1 0
0 0.10507 0
0 0 0
1 0 0
1 1 0
0 1 0
0 0 0
0.720332 0 0
1 0 0
1 0.393947 0
0.991832 0.38335 0
0.827374 0.159594 0
0.720332 0 0
0 0 0
1 0 0
1 1 0
0 1 0
0 0 0
0 0 0
0.0109823 0 0
0 0.0111569 0
0 0 0
0 0 0
1 0 0
1 1 0
0 1 0
0 0 0
0 0 0
1 0 0
1 1 0
0 1 0
0 0 0
0 0 0
1 0 0
1 1 0
0 1 0
0 0 0
0 0.120727 0
0.259782 0.267521 0
0.684996 0.516346 0
1 0.708996 0
1 1 0
0 1 0
0 0.120727 0
0 0 0
1 0 0
1 1 0
0 1 0
0 0 0
0 0 0
0.0226366 0 0
0 0.0265982 0
0 0 0
0.796643 0 0
1 0 0
1 0.60125 0
0.870729 0.233416 0
0.796643 0 0
0 0.132386 0
0.260233 0.26816 0
0.66204 0.485647 0
1 0.677582 0
1 1 0
0 1 0
0 0.132386 0
0 0 0
1 0 0
1 1 0
0 1 0
0 0 0
0 0 0
1 0 0
1 1 0
0 1 0
0 0 0
0 0 0
0.0492342 0 0
0 0.0618596 0
0 0 0
0 0 0
1 0 0
1 1 0
0 1 0
0 0 0
0 0 0
1 0 0
1 1 0
0 1 0
0 0 0
0 0.207965 0
0.63303 0.540809 0
1 0.750547 0
1 1 0
0 1 0
0 0.207965 0
0 0 0
1 0 0
1 1 0
0 1 0
0 0 0
0 0.13865 0
0.730244 0.60629 0
0.736018 0.610102 0
1 0.791507 0
1 1 0
0 1 0
0 0.13865 0
0.705029 0 0
1 0 0
1 0.432456 0
0.933809 0.340774 0
0.791644 0.133725 0
0.705029 0 0
0 0 0
1 0 0
1 1 0
0 1 0
0 0 0
0 0 0
1 0 0
1 1 0
0 1 0
0 0 0
0 0 0
0.0486793 0 0
0 0.0578135 0
0 0 0
0 0 0
1 0 0
1 1 0
0 1 0
0 0 0
0 0.145316 0
0.199921 0.261284 0
0.921348 0.693009 0
1 0.74278 0
1 1 0
0 1 0
0 0.145316 0
0 0 0
1 0 0
1 1 0
0 1 0
0 0 0
0.702432 0 0
1 0 0
1 0.347978 0
0.715301 0.0163654 0
0.702432 0 0
0 0 0
1 0 0
1 1 0
0 1 0
0 0 0
0 0 0
1 0 0
1 1 0
0 1 0
0 0 0
0 0 0
0.0296311 0 0
0 0.0296718 0
0 0 0
0 0 0
1 0 0
1 1 0
0 1 0
0 0 0
0.743518 0 0
1 0 0
1 0.46503 0
0.963519 0.401859 0
0.784841 0.0772971 0
0.743518 0 0
0 0 0
1 0 0
1 1 0
0 1 0
0 0 0
0 0 0
0.0322302 0 0
0 0.0349769 0
0 0 0
0 0 0
0.351451 0 0
0.516213 0.122697 0
1 0.493293 0
1 1 0
0 1 0
0 0 0
0 0 0
1 0 0
1 1 0
0 1 0
0 0 0
0 0 0
1 0 0
1 1 0
0 1 0
0 0 0
0.836108 0 0
1 0 0
1 0.474787 0
0.912311 0.232747 0
0.836108 0 0
0 0 0
1 0 0
1 1 0
0 1 0
0 0 0
0 0 0
1 0 0
1 1 0
0 1 0
0 0 0
0 0 0
0.0251759 0 0
0 0.023252 0
0 0 0
0 0 0
1 0 0
1 1 0
0 1 0
0 0 0
0 0 0
0.198893 0 0
0.216048 0.0112651 0
1 0.537024 0
1 1 0
0 1 0
0 0 0
0.858934 0 0
1 0 0
1 0.381817 0
0.926726 0.193251 0
0.858934 0 0
0 0 0
1 0 0
1 1 0
0 1 0
0 0 0
0 0 0
0.0606624 0 0
0 0.0702602 0
0 0 0
0 0 0
1 0 0
1 1 0
0 1 0
0 0 0
0 0 0
1 0 0
1 1 0
0 1 0
0 0 0
0 0 0
0.352211 0 0
0.475182 0.0807696 0
1 0.435717 0
1 1 0
0 1 0
0 0 0
0 0 0
1 0 0
1 1 0
0 1 0
0 0 0
0 0 0
0.0444982 0 0
0 0.050938 0
0 0 0
0.869298 0 0
1 0 0
1 0.385323 0
0.93113 0.192635 0
0.869298 0 0
0 0 0
1 0 0
1 1 0
0 1 0
0 0 0
0 0 0
1 0 0
1 1 0
0 1 0
0 0 0
0 0 0
0.187698 0 0
0.207859 0.0135283 0
0.765003 0.395688 0
1 0.562833 0
1 1 0
0 1 0
0 0 0
0 0 0
1 0 0
1 1 0
0 1 0
0 0 0
0 0 0
0.0614246 0 0
0 0.077056 0
0 0 0
0 0 0
1 0 0
1 1 0
0 1 0
0 0 0
0.849919 0 0
1 0 0
1 0.48866 0
0.917252 0.232609 0
0.849919 0 0
0 0 0
1 0 0
1 1 0
0 1 0
0 0 0
0 0 0
0.0709749 0 0
0 0.0889156 0
0 0 0
0 0 0
0.197798 0 0
0.767975 0.353861 0
0.819174 0.386698 0
1 0.505821 0
1 1 0
0 1 0
0 0 0
0 0 0
1 0 0
1 1 0
0 1 0
0 0 0
0 0 0
1 0 0
1 1 0
0 1 0
0 0 0
0 0 0
1 0 0
1 1 0
0 1 0
0 0 0
0 0 0
1 0 0
1 1 0
0 1 0
0 0 0
0.722191 0 0
1 0 0
1 0.348125 0
0.722191 0 0
0 0 0
0.270769 0 0
0.7925 0.365981 0
1 0.51555 0
1 1 0
0 1 0
0 0 0
0 0 0
1 0 0
1 1 0
0 1 0
0 0 0
0 0 0
1 0 0
1 1 0
0 1 0
0 0 0
0 0 0
1 0 0
1 1 0
0 1 0
0 0 0
0 0 0
0.325156 0 0
0.582629 0.14582 0
1 0.393287 0
1 1 0
0 1 0
0 0 0
0 0 0
1 0 0
1 1 0
0 1 0
0 0 0
0 0 0
1 0 0
1 1 0
0 1 0
0 0 0
0 0 0
1 0 0
1 1 0
0 1 0
0 0 0
0 0 0
1 0 0
1 1 0
0 1 0
0 0 0
0.761587 0 0
1 0 0
1 0.33449 0
0.935306 0.248333 0
0.761587 0 0
0 0 0
1 0 0
1 1 0
0 1 0
0 0 0
0 0 0
0.316622 0 0
0.50421 0.130087 0
1 0.483875 0
1 1 0
0 1 0
0 0 0
0 0 0
1 0 0
1 1 0
0 1 0
0 0 0
0 0 0
1 0 0
1 1 0
0 1 0
0 0 0
0 0 0
1 0 0
1 1 0
0 1 0
0 0 0
0 0 0
1 0 0
1 1 0
0 1 0
0 0 0
0.805783 0 0
1 0 0
1 0.331019 0
0.960636 0.270273 0
0.9198 0.202937 0
0.805783 0 0
0 0 0
1 0 0
1 1 0
0 1 0
0 0 0
0 0 0
1 0 0
1 1 0
0 1 0
0 0 0
0 0 0
1 0 0
1 1 0
0 1 0
0 0 0
0 0 0
0.379645 0 0
0.947047 0.347521 0
1 0.381498 0
1 1 0
0 1 0
0 0 0
0 0 0
1 0 0
1 1 0
0 1 0
0 0 0
0.860659 0 0
1 0 0
1 0.498885 0
0.921527 0.232489 0
0.860659 0 0
0 0 0
1 0 0
1 1 0
0 1 0
0 0 0
0 0 0
0.0903761 0 0
0.750156 0.447158 0
1 0.622826 0
1 1 0
0 1 0
0 0 0
0 0 0
0.361767 0 0
0.25634 0.0723872 0
0 0.236702 0
0 0 0
0.149842 0 0
1 0 0
1 0.85209 0
0.767825 0.627089 0
0.288563 0.144948 0
0.149842 0 0
0 0 0
[...]
CELL_DATA 6173
FIELD FieldData 3
weight 1 6173 float
 1.19038 1.19085 1.19707 1.19697 0.965789 1.19676 0.971765 0.865537 0.971907 0.971752 0.977954 1.17815 0.978228 0.859541 0.971937 0.978236 0.984279 1.17806 0.859343 0.98433 1.17803 0.984579 0.990589 0.872021 0.977928 1.18417 0.978223 0.984323 0.865396 1.1844 0.990566 0.984283 0.865678 0.840798 0.934189 0.934443 0.940527 1.18428 0.940632 0.840606 0.940453 0.946809 0.934301 0.83459 1.18413 0.934564 0.934477 0.834412 1.17811 0.940484 0.946916 1.19064 0.94074 0.946712 0.947033 0.953268 1.18462 0.846872 0.959135 0.953261 0.959522 0.95931 0.84667 0.953267 0.953209 0.946754 0.840863 0.959523 0.959536 0.953208 0.934333 1.1906 0.940574 0.93432 0.828285 0.946693 0.940833 0.946668 0.821707 1.19081 0.93449 0.934166 0.821664 0.946756 0.940784 1.19042 0.940687 0.83452 0.703325 0.946922 0.953246 1.19669 0.95298 0.828078 0.94681 0.959242 0.95945 1.19687 0.959498 0.828321 0.953137 0.952876 0.953253 1.19678 0.959423 0.852994 1.19062 0.959323 0.72176 0.965554 0.96584 1.1842 0.959476 0.853154 0.971846 0.722105 0.965453 0.965792 0.965838 1.19701 0.978282 0.728176 0.847054 1.19086 0.971956 0.959402 0.72817 0.965609 0.972003 1.19702 0.965449 1.1968 0.859374 0.978291 0.978147 0.728311 0.971696 1.19672 0.977883 0.853295 0.984156 0.984465 0.721905 0.978124 0.859317 0.990794 0.721915 1.15939 0.990755 0.984324 0.840397 0.984279 0.984536 0.721683 0.990473 1.15322 0.834172 0.990472 0.728012 0.990438 0.996673 1.15926 0.965446 0.728144 0.834336 0.971824 0.971991 1.16547 0.965705 0.728155 0.978213 0.840693 0.971809 0.734323 1.15931 0.977965 0.971808 0.96539 0.971648 0.853047 1.15958 0.978287 0.978003 0.977988 1.14711 0.984263 1.15926 0.984378 0.984322 0.84673 0.990453 1.15301 0.990865 0.990396 1.15944 0.98433 0.846892 0.990742 0.984513 0.990389 1.16566 0.996994 0.840836 0.996631 1.17211 0.709417 0.91566 0.740569 1.16572 0.915613 1.16576 0.702997 0.90953 1.16574 0.915789 0.709412 1.17171 0.715486 0.921932 1.1719 0.703047 0.921693 1.17171 0.740426 0.721947 1.16542 0.921757 0.715626 0.909572 1.16562 0.90913 0.746861 1.17209 0.721657 0.915629 1.17169 0.915584 0.721653 1.17174 0.747019 0.715382 0.915618 1.15937 1.15913 0.747059 1.16542 1.16555 0.928132 1.15944 0.709449 1.15959 1.15923 0.734364 1.1656 1.16556 0.709333 1.16541 1.17187 1.17199 1.17809 0.740867 1.17816 0.934133 1.17205 0.740424 1.17196 0.703111 1.17176 1.16562 0.928048 1.17168 0.740646 1.17834 0.9344 0.721732 1.17832 0.734468 1.17808 0.940849 0.721665 0.740717 0.940684 1.17817 0.727996 0.734559 0.934574 1.17799 0.728118 0.740723 0.922109 0.71586 1.1782 0.746729 0.921884 1.18435 0.728257 0.746631 1.18441 0.921956 0.746765 0.734283 1.17804 0.934306 0.746916 1.17817 0.728334 1.18439 0.928301 0.746865 1.17824 0.928226 0.74054 0.746993 1.18428 0.928199 0.753303 1.18436 0.902925 0.740411 0.746969 1.18427 0.903018 0.746832 1.18454 0.747 0.897053 1.19085 0.740491 0.753127 0.909172 1.19041 0.734145 0.753229 0.909595 1.19677 0.759316 0.740708 0.90312 1.19683 0.752955 1.19047 0.734428 0.753365 0.896805 0.734213 0.759215 0.896649 0.740874 1.19057 0.753265 0.890639 0.753031 1.19058 0.765496 0.903115 0.74694 1.19062 0.759577 0.709589 1.19702 0.909199 0.902894 0.759136 1.19711 0.896863 0.703205 1.19687 0.915398 0.721967 1.18444 0.915689 0.728169 1.17811 0.90936 0.72803 0.921815 1.19079 0.715427 0.921759 0.715466 1.17819 0.915669 0.715839 1.18422 0.909215 0.702957 1.18446 0.915742 0.703122 1.18429 0.903179 0.715429 0.915671 1.19081 0.734539 0.921756 0.721653 0.740729 1.18425 0.728323 0.921668 0.740515 0.94665 0.722123 1.19712 0.953341 0.946719 0.728299 0.734371 0.959615 1.1908 0.953117 0.728255 1.18454 0.940692 0.747061 0.734244 0.940507 0.734127 0.746939 1.19062 0.934243 0.721749 0.953245 0.747026 1.19064 0.721858 0.946741 0.734167 0.728078 1.19666 0.947029 0.722007 0.728282 1.19696 0.728086 0.940462 0.965765 0.740379 0.965434 0.734387 0.959315 0.971664 0.971844 0.753359 0.972014 1.19056 0.965511 0.734207 0.959528 0.74075 0.734422 0.959603 0.959151 0.965808 0.972051 1.19694 0.753265 0.965771 1.19675 0.709464 0.747049 0.928081 0.703065 0.934232 0.715708 1.19697 0.759466 0.715691 1.19696 0.928116 0.721851 0.996991 0.753136 1.00337 0.715747 1.00937 1.00333 0.934483 1.00937 0.996746 0.753375 0.709151 0.946675 1.00326 0.997049 1.0092 0.709227 0.940707 0.759458 1.00337 0.709287 1.00325 1.01556 0.934282 1.01569 0.702966 1.01546 0.765856 1.02192 0.92807 0.715631 1.02211 0.77164 0.921845 1.02198 0.721894 1.00962 0.765624 1.01538 0.934502 0.721986 1.0095 1.02196 0.722094 1.02179 1.01565 1.00303 0.996989 1.00924 0.722091 1.00955 1.00312 1.00328 0.728339 0.996739 0.996889 1.00292 0.728232 1.00336 1.00943 1.01576 0.734483 1.00934 1.01587 1.01566 0.740782 1.02171 1.02809 1.02169 1.02163 0.740586 1.00953 1.01561 1.02163 0.734127 1.01555 1.02171 1.02824 0.727902 1.02825 1.03441 1.02803 1.04044 1.04059 1.03456 0.734611 1.02797 1.02799 1.03413 0.727893 1.04073 1.03449 1.03432 1.04688 0.734561 1.04676 1.0407 1.05291 1.05326 0.734209 1.04683 1.05325 1.0404 0.740575 1.04067 1.04059 1.05321 0.740441 1.04703 1.04708 1.02824 1.03416 0.759433 1.02822 1.04074 1.03428 1.02832 1.028 0.740868 1.04076 1.03452 1.03452 1.03449 1.04709 0.928329 0.74082 0.75297 0.740585 1.04682 0.765393 1.04075 0.740624 1.05326 0.934573 1.04682 0.771895 0.746706 1.05303 1.05313 1.04038 1.04701 0.746727 1.04081 0.772053 1.05336 0.934612 1.04674 0.74701 0.996962 0.772076 0.996741 0.946735 0.996812 0.740483 1.0094 1.00317 1.00308 0.765865 1.00289 0.952953 0.746791 0.990736 0.996812 0.990681 0.9405 0.784139 0.740773 0.997059 0.959469 1.00317 1.0029 1.00932 0.778352 0.74664 0.953271 1.01585 1.00932 0.78449 1.01566 0.747101 1.02183 0.778322 1.02197 1.02202 1.01565 1.00956 0.953263 0.752882 1.0096 0.790874 1.01571 1.00923 1.01585 0.790726 0.984383 0.753344 0.99072 0.947022 0.996922 0.990504 0.752928 0.996861 0.784255 0.984221 0.946702 0.984554 0.978144 0.753072 0.778255 0.984301 0.940485 0.990456 0.753311 0.990428 0.990554 0.784477 0.940755 1.00929 1.00316 1.00307 0.759422 1.00311 1.01548 0.778368 0.765776 0.940556 1.00941 1.00323 0.997044 0.790489 0.952934 0.996728 0.759317 0.996833 1.00925 0.78431 1.00318 0.947083 0.765544 0.790518 1.02794 1.02796 1.02799 0.947085 0.759218 1.03437 0.75923 1.03451 0.890795 1.02183 0.759295 1.02165 0.752889 1.01586 1.02809 0.884458 1.02181 0.759269 1.02794 1.04053 0.75932 0.884586 1.04072 0.765799 1.04067 1.04693 1.05314 0.88445 1.04703 0.753014 1.04669 0.772005 1.0344 0.896848 1.03418 0.765558 0.765863 1.02819 1.04087 1.04065 0.765469 1.0217 0.890787 1.01559 0.772003 1.02826 0.771671 1.028 0.890462 1.00922 0.765667 0.746789 1.01561 0.8782 1.00925 1.01573 0.752881 1.02201 0.765429 1.02808 0.871922 1.0221 1.01578 0.753297 1.03434 0.878083 1.03413 1.03413 0.753065 1.04048 0.759546 1.04688 0.87196 1.04705 0.753083 1.04044 1.03433 0.884529 0.759569 1.02195 0.759255 1.02799 1.0406 0.746649 1.03458 0.878084 1.06543 1.05954 1.05931 0.759145 0.7471 0.884219 1.06572 1.06545 1.06557 0.896831 0.747002 1.05956 0.765729 1.05337 0.753249 0.903071 1.05939 1.06539 0.772081 0.903031 1.06568 0.75291 0.897116 1.05949 0.771743 1.0719 0.759595 0.909225 1.07169 1.07181 1.07797 0.903141 0.759601 0.765794 1.07796 1.07815 0.909289 1.07185 0.759338 1.07835 1.07163 0.890804 0.777988 0.759504 1.06581 0.890447 1.08446 1.07164 0.765844 0.777984 1.07808 0.909507 1.05932 0.771712 1.05926 1.05915 0.896957 1.06567 0.772009 0.76543 1.05956 0.896893 1.06552 0.784208 1.05917 0.771856 0.865652 1.05297 1.05925 0.790695 1.07191 0.771817 0.865694 1.06582 0.797009 1.07189 1.06586 0.765471 1.07187 0.784257 0.859303 1.07796 0.790565 0.872023 1.07796 0.765618 1.07826 0.784156 0.877933 1.0779 1.07206 1.06587 1.07188 0.77822 0.771774 1.08435 0.872083 1.0782 1.08449 1.08418 0.778252 0.765517 0.865758 1.08447 0.79044 1.09047 1.09051 0.778288 1.0905 1.09054 0.853026 1.08435 0.790464 1.08442 0.771986 1.09044 0.846783 1.09068 1.09684 0.784241 1.09663 0.778208 1.09695 1.10336 0.790497 1.10318 0.77801 0.853372 1.10302 1.10932 1.0968 1.09696 0.709471 0.872115 1.09674 1.10313 1.10943 0.715688 1.10326 1.08415 0.859464 1.08439 1.09078 0.752893 0.722035 1.09058 0.859382 1.09706 0.728231 1.09067 1.08414 0.747 1.07821 0.728316 0.884203 1.0844 0.721791 0.753077 1.09689 0.8846 1.0969 1.10303 1.10332 0.878191 0.7531 0.703272 1.10337 1.10946 0.890504 0.709352 0.753192 1.09676 0.715616 1.09079 0.890454 0.722082 1.10334 0.746945 1.1155 1.09677 0.884447 1.10928 0.759212 0.715682 1.05315 1.05328 0.865699 1.05323 0.753304 1.05927 0.73443 1.05942 1.05335 0.759349 0.877932 0.728203 1.04663 1.04695 0.759498 0.86563 1.0595 1.05955 0.734409 1.0594 0.753293 0.878161 1.0658 0.740457 1.06548 1.07209 0.753253 1.07163 1.078 0.746808 1.06559 0.759598 1.06553 0.871649 1.06567 0.765641 1.07178 1.07196 0.75329 0.759199 0.871815 1.07207 0.746816 1.05301 1.04667 0.765784 1.05288 1.05923 0.92821 1.05333 0.740858 1.04686 1.04697 1.04058 0.915663 0.734336 0.759184 1.05311 0.72791 1.05333 1.06543 0.765788 1.05957 0.734333 1.072 0.915421 1.07188 0.765404 1.06559 1.05933 0.728134 1.05933 0.765396 1.05302 1.06577 1.06547 0.77172 0.740663 0.921871 1.05913 0.740687 1.07806 1.08436 0.772112 1.07798 1.09058 0.928279 1.08458 0.772018 1.08414 1.078 1.07827 0.759141 1.09039 0.922117 1.08461 1.08448 0.703279 1.09044 0.759569 1.09688 0.909589 1.0908 0.703258 1.10922 0.909355 0.765668 1.09675 1.10294 0.903255 1.0971 0.75921 0.721826 1.0906 0.915745 1.09086 0.715778 0.765731 1.09693 0.90935 1.09666 0.71563 1.07796 0.76563 1.07182 1.07166 0.915582 1.08425 0.715875 1.07826 1.07824 0.771838 0.721992 1.07187 0.934505 0.709213 0.765489 1.06539 0.702941 1.07791 0.765751 0.703285 0.928304 0.765653 0.709283 1.07803 1.08423 0.715605 1.09074 0.77169 0.934528 1.08413 1.09044 0.772036 1.09695 0.72199 0.940755 0.778165 1.09087 0.715438 0.772038 1.08423 0.940384 0.734212 0.77792 0.734473 0.921837 1.07822 0.728254 0.772036 0.927885 1.0904 0.740851 0.778058 0.915853 0.728246 1.08425 0.921858 0.771866 0.740766 0.921674 1.09709 0.77177 0.746747 0.778077 1.08417 0.978321 0.934172 0.978354 0.777886 0.99066 0.74668 0.98433 0.984175 0.78446 0.978118 0.978203 0.928035 0.97169 0.778239 0.728008 0.978071 0.98446 0.722075 0.984601 0.784459 0.927991 0.984621 0.996692 0.990771 0.734419 0.784432 0.896698 1.00304 0.997017 0.790695 0.996645 0.903209 0.990813 0.727876 0.784261 0.990828 0.990389 0.997109 0.89671 0.996906 0.740718 0.790449 1.00333 0.734196 1.00316 0.909595 0.771845 0.73452 0.76543 0.903326 0.959517 0.740651 0.771928 0.965779 0.778037 0.759188 0.902998 0.778217 0.746846 0.965436 0.771865 0.890685 0.752982 0.971892 0.777948 0.896942 0.752985 0.971974 0.778035 0.765806 0.777934 0.87815 0.972024 0.778237 0.77197 0.784204 0.884425 0.959204 0.772119 0.784239 0.884512 0.759372 0.784181 0.959549 0.790644 0.746858 0.902918 0.79084 0.953091 0.784217 0.746821 0.890444 0.784592 0.753136 0.759423 0.953052 0.890656 0.784262 0.75915 0.915466 0.765793 0.959427 0.790586 0.777895 0.790777 0.915687 0.965598 0.765855 0.790808 0.909493 0.778155 0.796775 0.965675 0.92197 0.784163 0.790676 0.965756 0.790679 0.921921 0.796702 0.78451 0.977911 0.909139 0.796673 0.790744 0.978126 0.796885 0.771835 0.984168 0.896666 0.803165 0.777941 0.978215 0.803032 0.897003 0.777999 0.984262 0.784386 0.771677 0.909227 0.990536 0.78432 0.784134 0.990431 0.79082 0.915779 0.778248 0.790744 0.984247 0.784145 0.902992 0.790807 0.784326 0.977935 0.902942 0.753364 0.797004 0.759303 0.80324 0.971835 0.909511 0.75321 0.796829 0.971772 0.765637 0.796979 0.984322 0.765568 0.915647 0.759308 0.803317 0.76555 0.797016 0.978089 1.01574 0.746698 1.00306 0.796631 1.00925 0.921735 1.02211 0.752941 1.01574 1.00331 0.803013 0.746911 1.00957 0.928039 0.809219 0.75919 1.00924 0.803111 0.753103 0.921823 1.01586 0.759545 1.0154 0.915504 0.809186 0.752891 1.00933 0.803045 0.771838 1.02803 1.02792 1.02791 0.922081 0.778033 1.0221 0.809472 0.771731 1.03439 0.934193 0.784436 1.03451 0.809516 0.778205 0.815833 0.927947 1.01555 0.7843 1.02207 0.815705 1.02168 0.771915 0.809408 1.02194 0.92823 0.815722 0.771933 1.02816 0.815843 0.765633 1.02799 0.934517 0.822058 0.765739 0.828251 0.996981 0.784495 0.821679 0.934437 0.997091 0.777905 0.771907 0.990751 0.778292 0.771674 0.940383 0.77201 1.0033 0.77791 0.996996 0.92834 0.797085 1.00295 0.784475 0.940683 0.803001 0.990784 0.777982 0.796685 0.78421 0.927993 0.984245 0.778166 0.803038 0.997121 0.934296 0.77163 0.815395 0.940473 0.802927 0.990541 0.784488 0.809496 0.946819 1.00923 0.777945 0.796682 0.778229 1.00914 0.934573 0.784516 0.803278 1.01557 0.946653 0.78436 0.796851 1.01553 0.940534 0.778222 1.00324 0.809215 0.790584 0.99665 0.953092 0.803296 1.00337 0.784418 0.790412 1.00954 0.947004 0.80925 0.79043 1.01551 0.953242 0.796784 0.959592 1.00915 0.821744 0.796776 0.953349 1.00335 0.790568 0.815566 0.94682 0.796998 0.959233 0.82208 0.803106 0.946697 0.93432 0.815675 0.796898 0.94084 0.959268 0.790616 0.934365 0.953043 0.834414 0.796941 0.953243 0.94041 0.797097 0.828007 0.946807 0.940455 0.80331 0.834602 0.796784 0.947113 0.934323 0.821786 0.778175 0.934429 0.95298 0.777882 0.815726 0.946788 0.946644 0.784587 0.940598 0.821893 0.946719 0.784246 0.940526 0.815579 0.79084 0.965592 0.827908 0.790672 0.828253 0.790638 0.953148 0.828237 0.959255 0.784429 0.953102 0.803149 0.965571 0.78422 0.803034 0.953016 0.784587 0.946855 0.797116 0.79052 0.809235 0.965426 0.796724 0.959354 0.803218 0.790626 0.971898 0.809352 0.965811 0.796625 0.796655 0.971765 0.803344 0.952897 0.796839 0.95962 0.796921 0.959184 0.803336 0.809562 0.953362 0.809623 0.802998 0.96578 0.959232 0.809424 0.809189 0.802976 0.959233 0.803124 0.96582 0.965867 0.802908 0.815849 0.959419 0.928294 0.797119 0.821834 0.802955 0.959281 0.934612 0.809367 0.815438 0.815611 0.927946 0.971693 0.815535 0.828068 0.940436 0.809285 0.96553 0.821923 0.815496 0.940516 0.972026 0.828246 0.803165 0.934196 0.815485 0.965469 0.809499 0.80303 0.978161 0.921643 0.809236 0.822015 0.947089 0.809571 0.915469 0.81542 0.946706 0.80915 0.828256 0.909185 0.80314 0.940686 0.809224 0.915761 0.828331 0.95331 0.809437 0.822009 0.815875 0.928154 0.95297 0.821995 0.809622 0.953266 0.921868 0.815559 0.840795 0.965728 0.815673 0.959547 0.922069 0.840522 0.815406 0.959381 0.821651 0.853098 0.821805 0.947101 0.846897 0.965593 0.815791 0.846726 0.965622 0.821637 0.953346 0.971772 0.82824 0.840761 0.940465 0.97211 0.828012 0.834518 0.821801 0.965861 0.947007 0.821691 0.959625 0.952978 0.84068 0.827968 0.971928 0.834433 0.82806 0.971718 0.959197 0.846962 0.971633 0.834269 0.946882 0.840563 0.965695 0.834386 0.934558 0.846958 0.98458 0.81576 0.815814 0.977977 0.859549 0.928333 0.821719 0.978181 0.822122 0.853313 0.934348 0.978294 0.822089 0.984243 0.853101 0.928155 0.821843 0.990527 0.984506 0.865786 0.828309 0.940646 0.865399 0.821989 0.971675 0.947056 0.859236 0.971814 0.827887 0.940381 0.86563 0.821773 0.971969 0.834374 0.93449 0.978174 0.85948 0.828284 0.97833 0.85322 0.827925 0.978021 0.852991 0.977918 0.834275 0.978175 0.859204 0.828353 0.984457 0.977915 0.865503 0.828287 0.990509 0.984255 0.834281 0.865429 0.984135 0.834279 0.978344 0.840444 0.840803 0.98461 0.840573 0.834217 0.971965 0.98415 0.840708 0.965514 0.834202 0.984305 0.840392 0.978329 0.834416 0.984589 0.846627 0.990445 0.834209 0.840657 0.972088 0.846698 0.984266 0.840659 0.840706 0.978057 0.840817 0.834298 0.996728 0.984512 0.834279 0.846755 0.990768 0.83454 0.990668 0.846662 0.996923 0.846686 0.846699 1.00333 0.715572 0.990418 1.0096 0.847122 0.702978 1.00297 0.709409 0.996769 0.84062 0.990526 0.709355 0.859211 0.990739 0.984528 0.72181 1.00308 0.852921 0.715832 0.728061 0.984447 0.990499 0.853361 0.721829 1.00302 0.865543 0.990501 0.996958 0.702939 0.859185 0.997095 0.997042 0.865434 0.71546 0.859146 0.990642 0.853202 0.959415 0.721875 0.853306 0.721837 0.953069 0.852994 0.715795 0.859373 0.996968 0.728272 0.865789 0.734156 0.859343 0.953088 0.727936 0.965759 0.802905 0.959507 0.734325 0.959447 0.796955 0.959586 0.740697 0.953278 0.796638 0.965825 0.7344 0.79705 0.971871 0.809568 0.746736 0.965816 0.809166 0.740658 0.809212 0.734199 0.95939 0.803317 0.740771 0.796869 0.965529 0.965504 0.727882 0.790756 0.953038 0.971762 0.746686 0.965852 0.790768 0.740522 0.946894 0.971986 0.746708 0.809422 0.802993 0.746764 0.965551 0.940438 0.796871 0.978334 0.947091 0.802992 0.971957 0.822016 0.709502 0.953173 0.815498 0.703049 0.978323 0.959526 0.815437 0.71587 0.953178 0.971934 0.827975 0.722029 0.822074 0.959412 0.978029 0.715851 0.971871 0.709364 0.984361 0.828027 0.978209 0.81558 0.971717 0.977894 0.715779 0.809292 0.984468 0.984473 0.809379 0.971976 0.978111 0.721677 0.822008 0.978274 0.715779 0.827903 0.984197 0.821724 0.721689 0.984289 0.965441 0.815756 0.72814 0.971646 0.98414 0.82187 0.734178 0.959319 0.990765 0.790639 0.728299 0.96539 0.990843 0.971903 0.797023 0.96584 0.740621 0.971925 0.971752 0.790819 0.734372 0.971647 0.978085 0.978138 0.747053 0.802955 0.977897 0.965638 0.740554 0.984487 0.978055 0.796949 0.984405 0.728203 0.971942 0.984276 1.03461 0.803304 0.734543 0.990592 1.04087 0.984352 1.04042 0.803163 0.984429 1.04691 0.990819 0.790628 0.728002 0.990732 1.04038 0.996858 1.04672 0.990598 0.740448 0.784446 0.996707 1.03432 0.99057 0.784136 0.996856 1.00303 1.0032 1.02789 0.790823 0.734489 0.996785 0.796928 0.740469 1.03452 0.990715 0.803351 0.753221 1.0405 0.797118 0.997095 0.759315 0.809292 1.03423 0.990752 0.81584 0.753038 0.997084 1.04059 0.746725 0.815661 0.996876 1.05301 0.759244 0.809296 1.00303 1.05322 0.7658 0.821816 1.04667 0.996725 0.759618 1.05921 0.822012 0.76544 0.990638 1.05936 0.815537 0.753278 0.996695 1.04706 0.759226 0.809615 1.00288 1.05298 0.752924 0.809444 0.765853 1.0031 0.803089 1.04671 0.759388 1.00932 0.815555 0.765542 1.04664 0.821668 1.0092 0.771878 0.815679 0.772085 1.05915 1.00327 0.821684 1.00925 0.772073 1.00918 0.83446 1.02184 0.840448 1.05333 1.01556 0.778147 0.840625 1.02169 0.778057 1.05306 0.834556 0.771924 1.01545 1.02171 0.846769 0.771674 1.0095 1.02176 0.7782 1.02809 1.01539 0.840737 0.784344 1.04055 1.02212 0.846921 0.784504 1.02826 1.01581 0.77819 0.83424 0.784418 1.02208 0.834578 1.03438 0.996766 0.828227 0.759343 1.00303 1.02173 0.753075 1.00333 0.840619 1.01558 0.759602 1.00947 0.834484 1.02207 0.753327 1.00309 0.840739 1.01585 1.03448 1.00935 0.7655 0.853133 1.00927 1.02834 0.765811 1.00937 1.0033 1.02203 0.853124 1.01567 0.765569 1.01568 1.04068 0.859255 1.01559 0.759321 1.04665 0.859158 1.01574 0.747028 1.04071 1.02205 0.847028 0.753242 1.0468 1.02209 0.746859 0.853244 1.05305 1.02818 1.02173 0.753293 1.03427 1.02192 0.846627 0.765458 1.02802 1.02795 1.03416 1.02807 0.765726 1.0343 1.03461 0.847106 0.978102 0.859186 1.0408 0.759553 1.04684 0.852951 0.977934 0.778211 0.859582 1.04063 0.771909 0.990538 1.06568 0.828152 0.771932 0.984515 0.828292 0.777881 1.06562 0.990504 0.828337 0.784145 1.06553 0.984348 0.834532 0.790714 1.07211 0.997112 0.840638 1.07194 0.784616 0.997041 0.84044 1.07791 0.77193 0.990384 0.840485 1.05934 0.777939 0.996703 0.834241 1.05917 0.777881 0.996706 0.828303 1.07199 0.772011 1.06582 1.00293 0.827883 0.790454 1.06542 1.00313 0.834559 1.09043 0.784342 0.996693 0.834207 1.08427 0.778357 0.834418 1.07792 0.790422 0.99047 0.846995 1.08449 1.00959 0.846728 1.09692 1.00303 1.09669 1.00315 0.852886 1.09058 0.721866 1.00334 1.07163 1.0717 0.853349 1.07821 0.996705 0.840465 1.07825 1.01566 0.709534 0.846827 1.00922 1.08439 0.715524 0.84079 1.00914 1.05333 0.853069 1.02202 1.0596 0.715839 0.846706 1.0593 1.06581 0.728029 1.01562 1.06585 0.721818 0.846925 1.01586 1.05308 0.852906 0.728218 0.734325 1.04039 0.996653 0.709156 0.727927 0.709219 1.0468 0.740644 1.00307 0.709167 0.740757 1.05953 0.721861 1.0094 1.0529 0.746669 0.715592 1.05334 0.715866 0.746643 1.07199 1.00322 0.721976 1.07208 1.00938 0.753011 0.703316 1.0783 1.0092 0.71587 1.07194 0.747065 0.70938 1.01547 0.734165 1.07807 0.709326 1.0093 0.740532 1.07806 1.00305 0.722051 0.734292 1.06553 0.72193 1.01574 0.746676 1.05947 1.02201 0.72796 0.753021 1.05915 1.00937 0.727929 0.740772 1.01549 1.06556 0.734149 