# vtk DataFile Version 3.0
vtk output
ASCII
DATASET UNSTRUCTURED_GRID
POINTS 28879 float
0 0 0
1 0 0
1 1 0
0 1 0
0 0 0
0 0 0
1 0 0
1 1 0
0 1 0
0 0 0
0 0 0
1 0 0
1 1 0
0 1 0
0 0 0
0 0 0
1 0 0
1 1 0
0 1 0
0 0 0
0 0 0
1 0 0
1 1 0
0 1 0
0 0 0
0 0 0
1 0 0
1 1 0
0 1 0
0 0 0
0 0 0
1 0 0
1 1 0
0 1 0
0 0 0
0 0 0
1 0 0
1 1 0
0 1 0
0 0 0
0 0 0
1 0 0
1 1 0
0 1 0
0 0 0
0.59892 0.187784 0
0.500416 0 0
1 0 0
1 0.873752 0
0.613537 0.214116 0
0.59892 0.187784 0
0 0 0
1 0 0
1 1 0
0 1 0
0 0 0
0 0 0
1 0 0
1 1 0
0 1 0
0 0 0
0 0 0
1 0 0
1 1 0
0 1 0
0 0 0
0 0 0
1 0 0
1 1 0
0 1 0
0 0 0
0 0 0
1 0 0
1 1 0
0 1 0
0 0 0
0 0 0
1 0 0
1 1 0
0 1 0
0 0 0
0 0 0
1 0 0
1 1 0
0 1 0
0 0 0
0 0 0
1 0 0
1 1 0
0 1 0
0 0 0
0.311224 0 0
1 0 0
1 0.828346 0
0.737516 0.520404 0
0.311224 0 0
0 0 0
1 0 0
1 1 0
0 1 0
0 0 0
0 0 0
1 0 0
1 1 0
0 1 0
0 0 0
0 0 0
1 0 0
1 1 0
0 1 0
0 0 0
0 0 0
1 0 0
1 1 0
0 1 0
0 0 0
0 0 0
1 0 0
1 1 0
0 1 0
0 0 0
0.364056 0 0
1 0 0
1 0.93596 0
0.364056 0 0
0 0 0
1 0 0
1 1 0
0 1 0
0 0 0
0 0 0
1 0 0
1 1 0
0 1 0
0 0 0
0 0 0
1 0 0
1 1 0
0 1 0
0 0 0
0 0 0
1 0 0
1 1 0
0 1 0
0 0 0
0.450056 0 0
1 0 0
1 0.950447 0
0.559722 0.197168 0
0.450056 0 0
0 0 0
1 0 0
1 1 0
0 1 0
0 0 0
0 0 0
1 0 0
1 1 0
0 1 0
0 0 0
0 0 0
1 0 0
1 1 0
0 1 0
0 0 0
0 0 0
1 0 0
1 1 0
0 1 0
0 0 0
0.528575 0.0419602 0
0.500882 0 0
1 0 0
1 0.694668 0
0.888162 0.547798 0
0.528575 0.0419602 0
0 0 0
1 0 0
1 1 0
0 1 0
0 0 0
0 0 0
1 0 0
1 1 0
0 1 0
0 0 0
0 0 0
1 0 0
1 1 0
0 1 0
0 0 0
0 0 0
1 0 0
1 1 0
0 1 0
0 0 0
0 0 0
1 0 0
1 1 0
0 1 0
0 0 0
0 0 0
1 0 0
1 1 0
0 1 0
0 0 0
0.299489 0 0
1 0 0
1 0.524151 0
0.466162 0.129064 0
0.299489 0 0
0 0 0
1 0 0
1 1 0
0 1 0
0 0 0
0 0 0
1 0 0
1 1 0
0 1 0
0 0 0
0 0 0
1 0 0
1 1 0
0 1 0
0 0 0
0 0 0
1 0 0
1 1 0
0 1 0
0 0 0
0 0 0
1 0 0
1 1 0
0 1 0
0 0 0
0.571563 0 0
1 0 0
1 0.693001 0
0.862627 0.484716 0
0.571563 0 0
0 0 0
1 0 0
1 1 0
0 1 0
0 0 0
0 0 0
1 0 0
1 1 0
0 1 0
0 0 0
0 0 0
1 0 0
1 1 0
0 1 0
0 0 0
0.483766 0 0
1 0 0
1 0.903404 0
0.483766 0 0
0 0 0
1 0 0
1 1 0
0 1 0
0 0 0
0 0 0
1 0 0
1 1 0
0 1 0
0 0 0
0 0 0
1 0 0
1 1 0
0 1 0
0 0 0
0 0 0
1 0 0
1 1 0
0 1 0
0 0 0
0 0 0
1 0 0
1 1 0
0 1 0
0 0 0
0.556267 0 0
1 0 0
1 0.919071 0
0.611886 0.121601 0
0.556267 0 0
0 0 0
1 0 0
1 1 0
0 1 0
0 0 0
0 0 0
1 0 0
1 1 0
0 1 0
0 0 0
0 0 0
1 0 0
1 1 0
0 1 0
0 0 0
0 0 0
1 0 0
1 1 0
0 1 0
0 0 0
0.66538 0 0
1 0 0
1 1 0
0.258513 1 0
0.66538 0 0
0 0 0
1 0 0
1 1 0
0 1 0
0 0 0
0 0 0
1 0 0
1 1 0
0 1 0
0 0 0
0 0 0
1 0 0
1 1 0
0 1 0
0 0 0
0 0 0
1 0 0
1 1 0
0 1 0
0 0 0
0 0 0
1 0 0
1 1 0
0 1 0
0 0 0
0 0 0
1 0 0
1 1 0
0 1 0
0 0 0
0 0 0
1 0 0
1 1 0
0 1 0
0 0 0
0 0 0
1 0 0
1 1 0
0 1 0
0 0 0
0 0 0
1 0 0
1 1 0
0 1 0
0 0 0
0.116469 0 0
1 0 0
1 1 0
0.793611 1 0
0.533944 0.633989 0
0.116469 0 0
0 0 0
1 0 0
1 1 0
0 1 0
0 0 0
0 0 0
1 0 0
1 1 0
0 1 0
0 0 0
0.00765491 0 0
1 0 0
1 1 0
0.82376 1 0
0.00765491 0 0
0 0 0
1 0 0
1 1 0
0 1 0
0 0 0
0.251598 0 0
1 0 0
1 0.958306 0
0.566967 0.41517 0
0.251598 0 0
0 0 0
1 0 0
1 1 0
0 1 0
0 0 0
0 0 0
1 0 0
1 1 0
0 1 0
0 0 0
0 0 0
1 0 0
1 1 0
0 1 0
0 0 0
0 0 0
1 0 0
1 1 0
0 1 0
0 0 0
0.00984905 0 0
1 0 0
1 1 0
0.699633 1 0
0.608645 0.87503 0
0.499685 0.719625 0
0.00984905 0 0
0 0 0
1 0 0
1 1 0
0 1 0
0 0 0
0 0 0
1 0 0
1 1 0
0 1 0
0 0 0
0 0 0
0.293007 0 0
0.65078 0.290277 0
0.951604 0.540098 0
1 0.581665 0
1 1 0
0 1 0
0 0 0
0 0 0
1 0 0
1 1 0
0 1 0
0 0 0
0 0 0
1 0 0
1 1 0
0 1 0
0 0 0
0.109251 0 0
1 0 0
1 1 0
0.835992 1 0
0.798605 0.950171 0
0.109251 0 0
0 0 0
1 0 0
1 1 0
0 1 0
0 0 0
0 0 0
1 0 0
1 1 0
0 1 0
0 0 0
0 0 0
1 0 0
1 1 0
0 1 0
0 0 0
0 0 0
1 0 0
1 1 0
0 1 0
0 0 0
0 0 0
1 0 0
1 1 0
0 1 0
0 0 0
0 0 0
1 0 0
1 1 0
0 1 0
0 0 0
0 0 0
1 0 0
1 1 0
0 1 0
0 0 0
0 0 0
0.192421 0 0
1 0.513051 0
1 1 0
0 1 0
0 0 0
0 0 0
1 0 0
1 1 0
0 1 0
0 0 0
0 0 0
1 0 0
1 1 0
0 1 0
0 0 0
0 0 0
1 0 0
1 1 0
0 1 0
0 0 0
0 0 0
1 0 0
1 1 0
0 1 0
0 0 0
0 0 0
0.181206 0 0
0.39029 0.120417 0
1 0.484919 0
1 1 0
0 1 0
0 0 0
0 0 0
1 0 0
1 1 0
0.687701 1 0
0 0.0149511 0
0 0 0
0 0 0
1 0 0
1 1 0
0 1 0
0 0 0
0 0 0
1 0 0
1 1 0
0 1 0
0 0 0
0 0 0
1 0 0
1 1 0
0 1 0
0 0 0
0 0 0
0.156845 0 0
0.479951 0.224995 0
1 0.611706 0
1 1 0
0 1 0
0 0 0
0.0940052 0 0
1 0 0
1 1 0
0.771201 1 0
0.0940052 0 0
0 0 0
1 0 0
1 1 0
0 1 0
0 0 0
0 0 0
1 0 0
1 1 0
0 1 0
0 0 0
0 0 0
0.262882 0 0
0.64804 0.290593 0
0.959849 0.531259 0
1 0.563319 0
1 1 0
0 1 0
0 0 0
0 0 0
1 0 0
1 1 0
0 1 0
0 0 0
0 0 0
1 0 0
1 1 0
0 1 0
0 0 0
0 0 0
1 0 0
1 1 0
0 1 0
0 0 0
0 0 0
1 0 0
1 1 0
0 1 0
0 0 0
0 0 0
1 0 0
1 1 0
0 1 0
0 0 0
0 0 0
1 0 0
1 1 0
0 1 0
0 0 0
0 0 0
0.344709 0 0
0.530933 0.126113 0
1 0.459843 0
1 1 0
0 1 0
0 0 0
0 0 0
1 0 0
1 1 0
0 1 0
0 0 0
0.52347 0.318065 0
0.283728 0 0
1 0 0
1 0.923704 0
0.52347 0.318065 0
0 0 0
1 0 0
1 1 0
0 1 0
0 0 0
0 0 0
0.37567 0 0
0.898441 0.367996 0
1 0.443802 0
1 1 0
0 1 0
0 0 0
0 0 0
1 0 0
1 1 0
0 1 0
0 0 0
0.393427 0 0
1 0 0
1 0.843981 0
0.605131 0.302862 0
0.393427 0 0
0 0 0
0.080754 0 0
0.293741 0.116553 0
1 0.515619 0
1 1 0
0 1 0
0 0 0
0 0 0
0.117469 0 0
0.361845 0.128035 0
1 0.475203 0
1 1 0
0 1 0
0 0 0
0 0 0
0.141616 0 0
0.373124 0.125015 0
1 0.476449 0
1 1 0
0 1 0
0 0 0
0 0 0
1 0 0
1 1 0
0 1 0
0 0 0
0.246175 0 0
1 0 0
1 1 0
0.945501 1 0
0.63803 0.567763 0
0.246175 0 0
0 0 0
1 0 0
1 1 0
0 1 0
0 0 0
0.223623 0 0
1 0 0
1 1 0
0.871281 1 0
0.223623 0 0
0 0 0
1 0 0
1 1 0
0 1 0
0 0 0
0 0 0
1 0 0
1 1 0
0 1 0
0 0 0
0 0 0
1 0 0
1 1 0
0 1 0
0 0 0
0 0 0
0.128778 0 0
0 0.064052 0
0 0 0
0 0 0
1 0 0
1 1 0
0 1 0
0 0 0
0.326463 0 0
1 0 0
1 1 0
0.985291 1 0
0.610064 0.450163 0
0.326463 0 0
0 0 0
1 0 0
1 1 0
0 1 0
0 0 0
0 0 0
1 0 0
1 1 0
0 1 0
0 0 0
0 0 0
1 0 0
1 1 0
0 1 0
0 0 0
0 0 0
1 0 0
1 1 0
0 1 0
0 0 0
0 0 0
0.162622 0 0
0 0.0981376 0
0 0 0
0 0 0
1 0 0
1 1 0
0 1 0
0 0 0
0.35798 0 0
1 0 0
1 0.869728 0
0.735803 0.520719 0
0.35798 0 0
0 0 0
1 0 0
1 1 0
0 1 0
0 0 0
0.480343 0 0
1 0 0
1 1 0
0.999236 1 0
0.572917 0.186139 0
0.480343 0 0
0 0 0
1 0 0
1 1 0
0 1 0
0 0 0
0 0 0
0.281661 0 0
0 0.173204 0
0 0 0
0 0 0
1 0 0
1 1 0
0 1 0
0 0 0
0 0 0
0.0680028 0 0
0 0.0264197 0
0 0 0
0 0 0
0.271028 0 0
0.287072 0.00877949 0
1 0.408099 0
1 1 0
0 1 0
0 0 0
0.524216 0 0
1 0 0
1 0.811413 0
0.748068 0.398236 0
0.687983 0.296012 0
0.524216 0 0
0 0 0
0.249817 0 0
0.27339 0.0124476 0
1 0.405255 0
1 1 0
0 1 0
0 0 0
0 0 0
1 0 0
1 1 0
0 1 0
0 0 0
0 0 0
1 0 0
1 1 0
0 1 0
0 0 0
0 0 0
0.3605 0 0
0 0.208767 0
0 0 0
0.695816 0 0
1 0 0
1 1 0
0.305922 1 0
0.695816 0 0
0 0 0
1 0 0
1 1 0
0 1 0
0 0 0
0 0 0
0.196188 0 0
0 0.0916621 0
0 0 0
0 0 0
1 0 0
1 1 0
0 1 0
0 0 0
0 0 0
1 0 0
1 1 0
0 1 0
0 0 0
0 0 0
1 0 0
1 1 0
0 1 0
0 0 0
0.430391 0.460738 0
0.658381 0 0
1 0 0
1 1 0
0.174972 1 0
0.430391 0.460738 0
0 0.0665809 0
0.704061 0.454303 0
1 0.624567 0
1 1 0
0 1 0
0 0.0665809 0
0.416059 0 0
1 0 0
1 1 0
0.929955 1 0
0.416059 0 0
0.899847 0 0
1 0 0
1 0.0444755 0
0.899847 0 0
0 0.16928 0
0.442164 0.371148 0
1 0.634499 0
1 1 0
0 1 0
0 0.16928 0
0 0 0
0.264116 0 0
0 0.117962 0
0 0 0
0.497308 0 0
1 0 0
1 1 0
0.981246 1 0
0.580522 0.179783 0
0.497308 0 0
0 0.0359806 0
1 0.61806 0
1 1 0
0 1 0
0 0.0359806 0
0 0 0
0.243106 0 0
0 0.137574 0
0 0 0
0.422218 0.44543 0
0.657113 0 0
1 0 0
1 1 0
0.141871 1 0
0.422218 0.44543 0
0.0753242 0 0
1 0 0
1 1 0
0.668368 1 0
0.40409 0.56178 0
0.0753242 0 0
0 0.182078 0
0.436893 0.373477 0
1 0.628662 0
1 1 0
0 1 0
0 0.182078 0
0.696451 0 0
1 0 0
1 0.173019 0
0.696451 0 0
0.220463 0 0
1 0 0
1 1 0
0.800669 1 0
0.695029 0.824528 0
0.220463 0 0
0 0 0
0.407396 0 0
0 0.226264 0
0 0 0
0 0.0504352 0
0.381568 0.28345 0
1 0.67423 0
1 1 0
0 1 0
0 0.0504352 0
0 0 0
0.193394 0 0
1 0.567127 0
1 1 0
0 1 0
0 0 0
0.931615 0 0
1 0 0
1 0.0295368 0
0.931615 0 0
0.931285 0 0
1 0 0
1 0.0339647 0
0.931285 0 0
0 0 0
0.111746 0 0
0.878155 0.447776 0
1 0.522944 0
1 1 0
0 1 0
0 0 0
0.420216 0.207511 0
0.546845 0 0
1 0 0
1 1 0
0.91043 1 0
0.639043 0.567735 0
0.420216 0.207511 0
0 0 0
0.216203 0 0
0.639522 0.291575 0
0.96776 0.52278 0
1 0.546293 0
1 1 0
0 1 0
0 0 0
0.262398 0 0
1 0 0
1 1 0
0.998717 1 0
0.568453 0.422769 0
0.262398 0 0
0 0 0
0.435952 0 0
0 0.202505 0
0 0 0
0 0.0668962 0
0.392642 0.283907 0
1 0.633068 0
1 1 0
0 1 0
0 0.0668962 0
0.118841 0 0
1 0 0
1 1 0
0.753108 1 0
0.118841 0 0
0 0.0441834 0
1 0.608145 0
1 1 0
0 1 0
0 0.0441834 0
0.554487 0 0
1 0 0
1 0.320369 0
0.554487 0 0
0 0.000285838 0
1 0.586408 0
1 1 0
0 1 0
0 0.000285838 0
0.603565 0 0
1 0 0
1 1 0
0.0546795 1 0
0.0665463 0.977639 0
0.603565 0 0
0 0 0
0.0571654 0 0
0.456859 0.238194 0
1 0.584264 0
1 1 0
0 1 0
0 0 0
0.532629 0.309017 0
0.326193 0 0
1 0 0
1 0.978448 0
0.532629 0.309017 0
0 0.174196 0
0.949324 0.668561 0
1 0.697009 0
1 1 0
0 1 0
0 0.174196 0
0.72172 0 0
1 0 0
1 0.0878371 0
0.72172 0 0
0 0.156828 0
0.949023 0.670757 0
1 0.700472 0
1 1 0
0 1 0
0 0.156828 0
0.629734 0 0
1 0 0
1 0.233223 0
0.629734 0 0
0.402473 0 0
1 0 0
1 0.912113 0
0.736818 0.520532 0
0.402473 0 0
0 0.172379 0
1 0.651921 0
1 1 0
0 1 0
0 0.172379 0
0 0.256242 0
0.101434 0.299357 0
0.64323 0.538098 0
1 0.702568 0
1 1 0
0 1 0
0 0.256242 0
0 0 0
0.333929 0 0
0 0.14115 0
0 0 0
0.723971 0.113941 0
0.78274 0 0
1 0 0
1 1 0
0.289729 1 0
0.723971 0.113941 0
0 0.195757 0
0.262807 0.339571 0
1 0.765908 0
1 1 0
0 1 0
0 0.195757 0
0 0.188771 0
0.397149 0.392 0
1 0.72 0
1 1 0
0 1 0
0 0.188771 0
0.697802 0 0
1 0 0
1 1 0
0.140425 1 0
0.36576 0.58638 0
0.697802 0 0
0 0 0
0.0332989 0 0
0 0.0580321 0
0 0 0
0.63268 0.0267987 0
0.552863 0 0
1 0 0
1 0.140484 0
0.63268 0.0267987 0
0 0.0757511 0
0.371536 0.288023 0
1 0.659645 0
1 1 0
0 1 0
0 0.0757511 0
0.370986 0 0
1 0 0
1 1 0
0.958877 1 0
0.621204 0.446623 0
0.370986 0 0
0 0 0
0.00225063 0 0
0 0.00388612 0
0 0 0
0 0.0436743 0
0.570403 0.373286 0
1 0.632077 0
1 1 0
0 1 0
0 0.0436743 0
0.524355 0 0
1 0 0
1 0.265869 0
0.524355 0 0
0.766733 0 0
1 0 0
1 1 0
0.187872 1 0
0.766733 0 0
0 0 0
0.0402829 0 0
0 0.0772454 0
0 0 0
0 0.118927 0
0.705059 0.451084 0
1 0.596833 0
1 1 0
0 1 0
0 0.118927 0
0 0.199252 0
0.951104 0.655563 0
1 0.680953 0
1 1 0
0 1 0
0 0.199252 0
0.509447 0 0
1 0 0
1 0.293175 0
0.95715 0.268314 0
0.509447 0 0
0.441422 0 0
1 0 0
1 1 0
0.965927 1 0
0.441422 0 0
0.660053 0.00163852 0
0.657533 0 0
1 0 0
1 0.211554 0
0.660053 0.00163852 0
0 0.20671 0
[...]
CELL_DATA 5610
FIELD FieldData 3
weight 1 5610 float
 1.0344 1.03433 1.02798 1.04067 1.03427 1.04076 1.04677 1.01577 1.0221 0.909572 1.02202 1.02795 1.02793 1.02805 1.02182 1.02788 1.02201 1.02809 0.921693 1.03441 1.03454 1.03455 1.04071 1.03416 0.922109 1.04671 1.04061 1.04695 1.04067 0.915789 1.04079 1.03437 1.04687 1.04696 0.90311 1.04058 1.0467 1.03413 1.04691 1.05301 1.04053 0.877944 1.04682 1.04672 1.05327 1.0531 1.05943 0.890622 1.04666 1.05918 1.05943 0.90913 1.0654 1.07165 1.0656 1.05327 1.05935 0.897039 1.05938 1.06544 1.06566 1.06563 0.884535 1.07202 0.978015 0.965558 0.965434 0.971928 0.984301 0.978144 0.965765 1.19086 0.959615 1.19085 1.05302 0.959501 1.18413 0.934574 1.05337 1.05305 1.05913 1.05917 0.959315 1.06555 1.05325 1.17823 1.05301 1.05327 0.953117 1.05943 0.984554 1.05929 0.978321 1.05954 0.996833 0.996728 1.19054 0.990554 1.06573 1.07173 1.07212 1.19085 0.959528 1.07836 0.971664 1.06558 1.18425 0.953245 1.07804 0.972014 1.19044 1.06574 0.971844 1.07181 0.965511 1.07188 0.965808 1.18416 1.07195 0.928301 1.07817 1.18417 1.08434 0.915629 1.1842 1.18428 1.19064 1.18435 0.940692 1.17811 0.946741 1.17817 1.18462 1.19086 0.721947 1.18439 0.934306 1.18436 1.18446 1.1842 1.18422 0.702997 1.18425 0.921956 1.19064 0.915584 1.18428 0.709412 1.18441 0.721657 1.19701 0.902925 1.19058 1.17819 1.18429 0.753136 0.897014 1.19062 0.740411 1.18427 1.19079 1.19064 0.890461 1.18454 0.928226 0.728257 1.18418 0.734283 0.915618 1.1908 0.703047 0.909595 0.959151 1.18414 0.753375 0.947029 0.746993 1.1904 1.19693 0.746832 0.740491 1.19676 0.940462 1.19081 0.940507 0.778352 1.19665 0.959603 1.19697 0.765856 1.1906 0.934232 1.19042 0.934243 1.19063 0.784255 1.19066 0.759466 0.921884 1.19686 1.19684 0.771826 0.89074 1.19667 1.19674 0.909172 0.740868 0.79692 1.19684 0.928081 0.740441 1.19669 0.784139 0.915398 0.7471 1.19692 1.19673 0.790874 0.928199 0.765624 1.19707 0.77164 0.865665 0.853367 0.753031 1.19678 0.759458 1.18454 0.846918 0.740575 0.778322 0.859508 0.746649 1.1842 0.790726 0.846757 0.752881 1.19041 0.78449 0.852923 1.19687 0.771895 0.82797 1.19047 1.19085 0.728334 0.821657 0.721732 1.19711 0.809618 1.1908 0.840523 1.19056 0.82813 1.18454 0.734213 1.19687 0.809212 1.19062 0.815671 1.19062 0.865717 1.19672 0.859253 1.19057 0.853086 1.1968 0.865823 0.871905 1.19702 0.859465 1.19683 0.759433 0.847051 1.19677 0.772076 0.834289 0.765865 0.834228 0.746736 1.19702 0.853217 0.765393 0.740658 0.840697 0.746708 0.790489 1.19712 0.828 0.740771 1.19697 0.778255 0.746764 1.19666 0.8221 0.78431 0.740522 1.19696 0.746686 0.80313 1.08418 1.07815 1.09047 0.753278 1.08447 1.0905 0.778368 1.08446 0.790397 1.07808 1.09054 1.08442 1.08435 0.772053 0.784347 1.09663 1.09684 1.10336 0.777988 1.10318 1.11575 1.10932 1.0968 0.809436 0.80926 1.09696 1.09068 1.09044 1.09695 0.79087 0.802927 1.10313 1.09674 1.07164 1.07796 0.803007 1.07189 1.07187 0.728002 1.08415 1.07796 0.803001 1.07826 1.0779 1.06587 0.734372 1.08435 0.815395 1.07188 0.734168 1.09058 0.815566 1.09078 0.752924 1.08439 1.0969 1.10332 0.740621 1.09067 0.796685 1.08414 1.07821 0.747053 1.0844 1.09706 0.753296 1.09079 0.797085 1.10303 0.734489 1.09689 0.821968 1.12167 0.809215 1.10956 1.11543 1.12173 0.747028 1.11571 0.803038 0.815851 1.10302 1.10326 0.809496 1.10943 0.78414 1.10933 0.753327 1.11562 0.82208 1.10918 0.759602 1.12798 0.796995 0.815726 1.1158 0.759321 1.1221 1.12202 1.12824 0.815675 1.12795 0.828229 0.740697 1.12196 1.11552 1.11543 0.81556 1.12205 1.12835 1.12171 0.840795 0.746725 1.10943 1.10337 0.802983 1.10946 1.09676 1.10322 0.828007 0.790537 1.11586 0.747002 1.10924 0.834602 1.09677 0.747051 1.10334 1.1155 1.10928 1.10949 0.840522 1.11558 1.12207 0.753038 1.1279 0.846897 0.759315 1.1221 1.10306 1.11562 0.759388 1.10298 0.853313 1.10943 0.753034 1.10933 1.12177 0.759618 1.12208 0.846726 0.871711 1.06582 1.0658 0.765853 1.06548 0.871907 1.05927 1.07209 0.828253 0.76544 1.07206 0.87803 0.840761 1.0782 0.75291 1.07163 0.821786 1.0595 0.903018 1.05335 0.853101 1.05942 0.859236 1.0594 1.04695 1.06559 0.846962 1.06553 1.07806 0.878045 1.078 1.09058 1.08436 0.803296 0.765517 0.884326 1.07178 0.796682 1.07207 1.07827 0.846761 1.07798 1.07196 0.796851 1.06567 0.778057 0.877913 1.04688 1.03413 1.03434 0.772085 0.80925 0.84075 1.05301 0.772073 1.04048 0.827908 1.04705 1.028 0.771878 1.03413 0.828148 0.821893 0.84081 0.834521 1.02201 0.784477 0.884586 1.04044 0.790518 1.03433 1.02808 0.77801 1.05288 0.871672 1.05955 1.04667 0.803149 1.05923 0.890391 0.778147 1.05957 1.05333 1.0406 0.884437 0.784136 1.02799 0.790695 1.04686 1.04058 1.03458 0.803278 0.89057 0.759343 1.09044 1.08458 0.809235 1.09688 0.7655 1.09675 0.865537 0.765811 0.834518 1.0908 1.09039 0.765542 1.08425 0.834433 1.078 0.778211 0.834508 0.828237 1.08461 1.08414 0.85322 1.08423 0.853065 1.10922 0.771909 1.0971 1.09693 0.84068 1.10294 0.771674 0.840675 0.846958 1.10332 0.771932 1.0969 0.840563 1.10295 0.765569 1.08448 0.834217 0.859236 0.77193 1.0906 0.815579 1.07824 0.777881 0.865598 1.09086 0.821923 1.09074 0.784616 1.09044 1.06543 0.840444 1.072 0.777939 1.07796 0.846914 1.07826 0.846627 1.06559 0.771924 1.07182 0.840657 1.05933 0.77819 0.803069 1.05311 1.04697 0.828068 1.03461 0.7782 0.821957 1.06577 0.784418 1.04087 1.05333 0.796876 0.790651 1.07166 1.07188 0.784504 1.07187 1.08413 1.07791 0.821899 0.784344 1.07803 1.06547 1.05933 0.784145 0.784188 1.05302 1.04691 1.06539 0.790714 1.05913 1.13452 0.809198 0.790649 1.13459 1.13428 0.790472 0.778143 0.796647 1.12799 0.796826 1.13415 1.14049 0.765383 1.13434 1.12799 1.12813 0.759447 1.13413 1.12209 1.14042 0.790435 1.14675 1.1471 1.14053 1.14051 1.14702 1.13424 1.12806 0.790552 1.14057 1.14072 1.14083 1.11585 1.11564 1.12203 1.12807 1.13428 1.11573 0.815859 1.12823 1.13438 1.1155 1.13434 1.12825 0.834144 0.784257 1.14044 1.1346 1.12818 1.14706 0.765667 1.14076 0.815762 1.12165 1.12813 1.13426 0.777984 1.12186 1.12797 1.12207 0.809158 1.13418 1.14681 0.772081 1.14691 1.15318 1.14071 0.809375 1.15301 1.15295 0.784208 1.15317 1.14667 1.13415 0.828035 0.772009 1.14711 1.15297 1.14073 1.15324 0.784156 0.797074 1.15957 1.15916 1.15927 1.16587 0.77822 1.14697 1.15313 1.14682 1.15913 1.15334 1.15928 1.14683 1.15315 1.1342 1.14067 1.15914 0.771646 1.1408 1.13437 1.14052 1.14666 1.14697 0.778242 1.14681 1.14679 1.15307 0.765419 1.15324 1.15302 1.1593 1.14085 1.14072 1.14674 0.752882 1.14686 1.15289 1.14077 1.10929 0.784262 1.10945 1.1096 1.11542 0.765729 1.11541 1.10294 1.10332 0.771865 1.09695 1.09666 1.10325 1.10962 1.09708 0.796673 1.10947 0.771743 1.12163 1.12805 1.11556 0.759145 0.784592 1.12796 1.122 1.11575 1.10305 0.778252 1.12176 0.753344 1.10962 0.778217 1.11544 0.746808 1.08423 1.07822 1.07211 0.778037 1.09087 1.0904 0.753072 1.09709 1.06553 0.772119 1.06562 1.06568 1.08417 0.790586 0.765806 1.08425 1.07194 1.10945 0.765794 1.10305 0.803032 1.09059 0.777895 1.10334 1.09671 1.10289 0.771856 0.821683 0.759188 0.771712 0.834197 1.09692 0.771671 1.09043 0.803034 1.07792 1.09062 1.08449 0.778229 0.809217 0.797116 1.1344 1.12792 1.13421 0.797009 0.778175 1.12823 1.12182 1.12834 0.827912 1.11546 0.815849 1.12179 1.13426 1.11543 1.12197 0.809352 1.14048 0.840763 1.14064 1.13447 0.803218 1.14669 1.13462 0.784217 1.1471 0.815438 1.12807 1.13431 1.12789 0.790808 1.14083 1.12827 0.796655 1.1157 1.10961 0.803165 0.790565 1.10957 1.12189 0.790464 1.10937 1.10326 1.09674 0.790777 1.1029 0.822015 0.796775 1.09076 0.803336 1.09669 1.10941 0.815855 0.809424 1.09702 1.12184 1.11563 0.809623 1.12179 0.809178 1.1346 1.12812 1.11543 0.821834 0.796885 1.1154 1.10939 1.10307 0.815771 0.834202 1.10336 0.828246 0.834289 1.11586 0.840659 0.846788 1.10916 0.834298 1.00922 0.821756 1.01573 0.828256 0.99066 1.00304 1.0221 1.00925 0.815485 0.828173 0.996692 0.98433 0.81542 0.978354 0.97169 1.00306 0.83454 0.840429 0.984175 0.98446 1.01578 1.01574 0.821995 1.02195 0.846657 0.771674 1.02792 0.828331 1.02211 1.02803 0.79044 0.859168 0.765863 0.990771 0.796839 0.997017 0.777945 0.784241 0.846863 0.784488 0.796955 0.990828 1.00925 0.784246 0.996645 0.852959 0.802976 0.802905 0.965771 0.78436 0.790497 0.865409 0.784163 0.790672 0.946675 0.77197 0.859494 0.790744 0.79043 0.972051 0.790679 0.859568 0.77791 0.978118 0.79705 0.877889 0.78421 0.78451 0.921785 0.952953 0.778155 0.784475 0.890846 0.809568 0.778222 0.921759 0.809166 0.784516 0.878272 0.803317 0.790584 0.884287 0.822009 0.796898 0.940707 0.815498 0.790616 0.909399 0.921815 0.822016 0.809437 0.915798 0.934483 0.815437 0.796784 0.809212 0.853148 0.765471 0.928116 0.796638 0.871704 0.90936 0.81558 0.871946 0.809422 0.771986 0.978203 0.865597 0.802993 0.771774 0.890507 0.859549 0.978071 0.853098 0.771817 0.903083 0.778288 0.865399 0.959469 0.778208 0.984621 0.865786 0.878154 0.784587 0.984601 0.965779 0.79054 0.872083 0.896875 0.946735 0.784286 0.871664 0.92196 0.796948 0.92807 0.877938 0.790626 0.915689 0.871752 0.896651 0.796809 0.934282 0.790395 0.909356 0.78422 0.86563 0.790814 0.953271 0.777882 0.803042 0.934502 0.784429 1.04042 1.03439 0.85948 0.809537 0.790638 1.0221 0.878225 1.03451 0.784587 1.02207 0.796693 1.02791 0.871703 1.01574 0.79052 1.00957 0.81564 0.878223 0.796724 1.00333 0.878357 0.803263 0.802955 1.01586 0.884339 0.834199 0.803257 1.00933 1.00924 0.802908 0.821937 1.04672 0.890579 1.02816 1.05301 1.05921 0.815496 1.04038 0.859559 1.04667 0.903333 0.809208 1.01555 0.821771 0.890539 0.790506 1.02194 0.796858 0.896845 0.828314 1.0154 0.803351 0.859165 1.03432 0.884185 0.796781 0.803108 1.02168 0.840821 0.890494 0.803222 1.02789 0.802879 0.884405 0.796971 0.80955 0.990389 0.796956 0.89053 0.809318 0.990813 0.897047 0.803141 0.815636 0.971892 0.903002 0.809503 0.834552 0.996906 0.815624 0.903339 0.821852 1.00316 0.815594 0.897109 0.809319 1.00331 0.809592 0.834164 0.997109 0.815505 0.859204 0.9405 0.815439 0.840704 0.852991 0.815531 0.959517 0.865429 0.821974 0.85317 0.940485 0.821659 0.853267 0.859211 0.965436 0.828109 0.865697 0.865503 0.828257 0.946702 0.86538 0.871738 0.822111 0.947022 0.846863 0.834619 0.990431 0.871918 0.865749 0.828116 0.984262 0.865425 0.852921 0.83418 0.884526 0.984168 0.846698 0.834342 0.878062 1.0033 0.859146 0.840836 0.890671 0.796921 0.997091 0.865543 0.79084 0.884554 0.977911 0.797119 0.971974 0.865434 0.796625 0.959204 0.903314 0.853361 0.953263 0.915777 0.803344 0.990536 0.878292 0.809285 0.978215 0.934212 0.809367 0.878276 0.965675 0.821676 0.909134 0.884504 0.897053 0.821773 0.8971 0.927959 0.896805 0.828284 0.890446 0.921963 0.815611 0.896649 0.890784 0.871834 0.827887 0.87189 0.878143 0.90312 0.796941 0.896895 0.87829 0.803124 0.915669 0.884387 0.815535 0.903115 0.8904 0.802998 0.871783 0.872071 0.902894 0.809562 0.902911 0.884461 0.809189 0.909285 0.859216 0.890439 0.821843 0.878348 0.915401 0.821989 0.821719 0.878322 0.884175 0.934285 0.840817 0.89671 0.84701 0.946878 0.827925 0.922081 0.834275 0.909127 0.884549 0.834374 0.903197 0.840706 0.865814 0.940795 0.834209 0.909566 0.928272 0.852998 0.922027 0.834142 0.915548 0.828116 0.909215 0.940479 0.828164 0.915702 0.896863 0.840537 0.947 0.92201 0.834449 0.909199 0.934591 0.903274 0.847036 0.921845 0.909501 0.840788 0.946984 0.921756 0.847023 0.909586 0.915671 0.840711 0.884458 0.915603 0.952886 0.847094 0.927912 0.934149 0.928295 0.853272 0.940425 0.952979 0.934269 0.890639 0.940478 0.853265 0.934521 0.859271 0.859532 0.921658 0.965434 0.852893 0.871943 0.965439 0.928341 0.890795 0.840838 0.959593 0.915547 0.878118 0.940854 0.971647 0.865537 0.853222 0.940831 0.96584 0.865456 0.940532 0.846855 0.940613 0.834416 0.940669 0.859187 0.903108 0.846867 0.946954 0.803191 0.909342 0.859625 0.909609 0.803123 0.859325 0.934603 0.896825 0.859354 0.840692 0.928222 0.915869 0.865526 0.921716 0.821897 0.953118 0.865544 0.921831 0.796693 0.915745 0.871826 0.940465 0.896751 0.865653 0.78426 0.890474 0.959354 0.872025 0.915604 0.790831 0.984487 0.902945 0.971903 0.909388 0.902978 0.771953 0.965852 0.928223 0.971762 0.78425 0.92201 0.977897 0.790573 0.934363 0.971925 0.740469 0.934402 0.778178 0.978055 0.984352 0.934332 0.984276 0.978138 0.990598 0.846948 0.99057 0.928214 1.0032 1.00962 1.00952 0.921643 0.996785 0.828143 1.0033 1.01549 0.996707 0.928144 0.853109 0.990819 1.00303 1.00927 0.921825 0.828067 0.753293 0.915609 0.996858 0.746859 0.809259 0.928153 1.00935 0.746643 0.93423 1.00937 1.02171 1.02837 0.765458 1.01567 0.928188 0.834197 0.759553 1.02192 0.846699 1.01568 1.02795 0.859541 0.853202 0.946769 0.79673 0.953196 0.846686 0.852994 0.803357 0.75934 0.94047 0.859185 0.778113 0.965529 0.859373 0.778005 0.971986 0.859343 0.784391 0.978334 0.847122 0.809532 0.959503 0.84062 0.790764 0.990732 0.834279 0.984429 0.859255 0.921668 0.853306 0.984289 0.840448 0.990843 0.903179 0.871788 0.996766 0.934573 0.959507 0.865789 0.928329 0.965551 0.865565 0.978274 0.92821 0.884294 0.953088 0.871739 0.915742 0.959415 0.765657 0.896848 0.878089 0.971976 0.872021 0.865828 0.965816 0.871999 0.784162 0.865861 0.990765 0.909225 0.77209 0.877934 0.996695 0.884586 0.871633 0.878214 0.872122 1.00309 0.87789 0.98414 0.940755 0.990638 0.934612 0.778042 1.00947 0.871712 0.952934 1.00333 0.827975 0.915663 0.790508 1.00303 0.822074 1.02173 0.940556 0.828027 1.02205 0.784178 1.02807 0.903031 1.03416 0.840625 0.777881 1.04055 0.896831 0.83446 1.03461 0.765726 1.04081 1.03439 0.834556 1.04685 0.778357 0.890787 0.827903 0.790454 1.01585 0.903071 0.821724 1.02818 0.784342 0.897116 1.03449 0.822008 0.790422 0.88445 1.01559 0.809292 0.796902 0.83424 1.02209 0.790668 0.846846 0.834578 0.772011 1.04077 0.815756 1.0406 0.77181 0.821988 1.04704 0.846769 0.784189 1.05296 1.04676 0.846921 0.80313 1.05324 0.815641 1.05306 0.840737 0.79707 0.840624 0.846627 0.797081 0.853106 0.853133 0.797104 0.859158 0.834135 0.803126 0.853124 0.803063 0.822072 0.840619 0.802978 0.871874 0.847028 0.803177 0.815663 0.840739 0.809572 0.828098 0.853244 0.790775 0.809508 0.884147 0.847106 0.853212 0.796985 0.815716 0.852951 0.815495 0.809509 0.896839 0.872097 0.815537 0.803241 0.878342 0.89085 0.797117 0.809279 0.897015 0.865396 0.822043 0.884157 0.827919 0.777938 0.902942 0.82792 0.784416 0.903178 0.790824 0.840798 0.890418 0.8404 0.790731 0.8782 0.884384 0.83427 0.809471 0.84712 0.84667 0.884563 0.80321 0.859338 0.896685 0.796938 0.834412 0.853354 0.89682 0.80951 0.809408 0.87204 0.890498 0.790476 0.802911 0.865811 0.890768 0.803024 0.803091 0.909292 0.890569 0.81581 0.909326 0.87827 0.803169 0.90927 0.890578 0.821631 0.796677 0.896902 0.928339 0.821738 1.05936 0.915785 0.821685 0.915722 1.05322 0.903031 0.922072 0.815709 0.896984 0.915425 0.821803 1.04706 0.902954 1.05298 0.909507 1.07791 0.834226 1.05915 0.90299 0.934151 1.05333 0.815452 0.921935 0.928123 1.04059 0.915645 0.828307 1.0405 0.947112 0.909518 1.03423 0.821698 0.865529 0.953069 1.04671 0.840552 0.927936 0.877918 1.04664 0.827922 0.859186 0.946856 0.828081 0.865536 1.04055 1.08427 0.846662 0.959586 1.07199 0.884461 1.09058 0.84045 0.903097 0.871952 1.07163 0.8342 0.884578 0.871717 1.06582 0.859582 0.915778 1.05306 0.859232 0.915863 1.05934 0.852886 0.909624 0.865685 0.734152 1.04068 0.865508 0.921764 0.896836 1.02809 0.940559 0.902965 0.953148 1.05917 0.884361 0.92803 1.06542 0.734149 0.878024 0.959354 1.04071 0.909276 0.971957 1.02799 0.727947 0.909569 0.840776 1.03452 0.890842 0.834197 0.753041 0.996981 0.859247 0.878285 0.846817 1.00923 0.740392 0.872011 0.834609 0.746684 1.01557 0.871985 1.00295 0.896718 0.872108 0.978126 0.884397 0.771945 0.865452 0.877903 0.965598 0.90934 0.771713 0.890717 0.972024 0.884254 0.984247 0.902979 0.796695 0.878333 0.890477 0.977935 0.840792 0.971835 0.784126 0.728231 0.840469 0.971772 0.790566 0.872053 0.765409 1.03438 0.73443 0.878354 0.759297 1.02171 0.859327 0.771903 1.00914 0.884168 0.777991 1.01553 0.865482 0.796948 0.89668 1.02176 0.778156 0.878024 0.996996 0.903232 0.990751 0.784245 0.734409 0.890425 0.984322 0.903161 0.752982 0.990784 0.921829 0.934573 0.703344 0.997121 0.746846 0.921959 1.07821 0.759372 0.91555 1.07825 0.746785 0.740663 0.915432 1.0717 0.940526 0.734333 0.753252 1.08434 0.927961 0.734336 0.734523 1.09695 0.940489 0.740687 0.996876 1.08439 0.752985 0.703292 0.977894 1.0593 0.746821 0.971693 1.0468 0.715789 0.959281 0.746858 1.07199 0.734589 0.978161 0.909545 1.05333 0.765396 1.0596 0.721658 0.934307 1.09664 0.946644 0.74688 1.09039 0.922037 0.740587 1.10318 0.928164 0.777987 1.09074 0.94041 0.765694 1.07806 0.946855 0.759193 1.07807 0.953102 1.08424 0.784316 0.98415 1.05308 0.959419 0.790421 1.06581 0.965469 1.07208 0.790636 0.753364 0.990499 1.05953 0.740766 0.772002 0.972026 1.06585 0.740851 1.04665 0.778187 0.965825 1.02826 0.759577 0.740651 0.971934 1.03448 0.753162 0.984473 1.00954 0.771835 1.0408 0.784499 0.965811 0.765855 1.05305 0.996725 0.809372 1.02173 0.777941 0.990752 1.01551 0.777999 1.0031 0.79672 0.978029 0.771677 1.00337 1.00932 0.765568 1.00324 0.790649 0.997095 0.99665 0.765793 0.815623 1.02208 1.00915 0.809234 1.01574 1.00335 0.771838 0.802964 0.978323 1.04684 0.76555 0.809568 0.984361 0.765637 1.03427 0.815794 0.997084 0.784134 0.822043 1.0468 0.790756 0.984305 0.821906 0.778248 1.0343 1.00303 0.784145 0.803067 1.0096 0.990715 0.790768 0.809598 1.00288 0.796869 1.02207 0.797 1.02212 0.784326 0.984457 0.828177 0.790639 1.03454 0.771731 1.02834 0.815552 1.0095 0.778033 0.815633 1.01558 1.01581 0.778205 0.828268 0.990509 0.771915 0.834211 1.00918 0.784436 0.828259 0.97833 1.01539 0.7843 0.840811 1.02826 0.959549 0.777905 0.834245 1.03428 0.84073 0.75321 1.02821 0.947083 0.846709 1.04698 0.746747 0.834135 0.953052 1.04062 0.740718 0.840854 0.959427 1.05317 0.834479 0.928279 0.846796 0.847053 0.803173 0.809162 0.797086 0.827882 0.82175 0.802995 0.815417 0.821744 0.815746 0.822027 0.82801 0.834414 0.821836 0.84075 0.828128 1.05956 0.834342 0.847045 0.947085 1.05918 0.74668 1.05914 1.06565 1.06564 0.909289 1.07835 0.859512 0.746698 1.06576 1.07197 0.921871 0.853209 0.890462 0.746911 1.04699 0.922117 0.85916 0.915421 0.752891 1.05332 0.828321 0.909589 0.753348 1.03456 0.834484 0.903141 0.746681 1.04062 0.965756 0.75919 0.840485 1.04704 0.934505 0.853002 0.759545 0.953091 0.846993 1.06542 0.765739 0.984245 0.840744 1.07797 0.771933 0.978089 0.815457 1.07185 0.765633 0.94682 0.809224 1.07809 0.784495 0.815501 0.915745 1.07195 1.08416 0.77201 1.09685 0.884529 0.821724 0.878083 0.827977 1.00327 0.759183 0.940755 0.822076 0.921837 1.00925 0.828116 0.765866 0.896957 1.01545 0.82198 0.890804 1.00308 0.828354 0.871922 1.02184 0.82821 0.852994 0.834606 1.02169 0.840681 1.02814 0.834367 0.859343 1.0344 0.840408 1.02827 0.834453 0.840606 1.03444 0.834462 0.859374 1.04054 0.840382 0.846872 0.84706 1.0092 0.853031 0.853154 1.01556 0.85914 1.02163 0.828066 0.853192 0.990445 0.846703 0.822028 0.853221 0.83459 1.02811 0.859433 0.865709 1.03416 0.821664 0.85962 1.04673 0.834345 0.865652 1.02807 0.865678 0.846685 0.847054 1.05309 0.847027 0.87196 0.853036 1.05946 0.859317 0.840783 0.878084 0.847105 1.04084 0.840863 0.853271 1.04682 0.85941 0.828285 1.05325 0.853088 0.83452 1.05304 0.847014 0.853295 0.840682 1.04085 0.853165 0.840397 0.85931 1.07795 0.965592 0.859223 1.05961 0.859139 0.990541 1.06571 0.959268 0.865755 1.08418 0.971898 0.865678 0.978021 1.08433 0.871924 0.953243 1.09073 0.87818 0.953043 1.07209 0.865482 1.0971 0.928304 0.865575 1.09065 0.940384 1.06571 0.878368 0.909507 1.05916 0.934528 0.872051 1.07182 0.927885 0.871636 1.06565 0.909355 1.07813 0.959255 0.871792 1.07189 0.747014 0.965426 0.878109 0.953016 0.747042 1.07837 0.85919 0.965571 0.846821 1.08434 0.971765 0.865551 1.07812 0.946697 0.872054 0.85292 0.915582 1.08423 0.928035 0.865602 1.09055 0.934172 1.01577 1.02168 0.915853 0.884407 1.02192 1.02811 0.921674 1.02827 1.03418 1.02831 0.884219 1.04058 0.747092 1.03434 0.871628 0.865694 1.04699 1.04039 1.02798 0.871858 1.03455 0.872023 1.04075 0.878342 1.03444 0.753306 1.04696 0.884203 0.878211 1.04712 1.04065 1.05314 0.884606 0.890447 1.04043 0.753072 1.04709 1.05324 0.872083 0.871899 1.05945 0.859303 1.04688 1.06538 1.04702 0.877969 1.05308 1.05962 1.05328 0.834172 0.8