# vtk DataFile Version 3.0
vtk output
ASCII
DATASET UNSTRUCTURED_GRID
POINTS 44482 float
0 0 0
0.00959796 0 0
0.0103232 0.00976793 0
0.005795 0.0145496 0
0 0.0144401 0
0 0 0
0.005795 0.0145496 0
0.0103232 0.00976793 0
0.0213746 0.0127214 0
0.020319 0.0203263 0
0.0119086 0.0230384 0
0.005795 0.0145496 0
0.0741846 0.525097 0
0.0803433 0.512359 0
0.08957 0.51987 0
0.0873657 0.527928 0
0.0801791 0.52945 0
0.0741846 0.525097 0
0.0218907 0 0
0.0351188 0 0
0.0328877 0.0116937 0
0.0223764 0.0117108 0
0.0218907 0 0
0.542086 0.0175221 0
0.550332 0.0150393 0
0.555212 0.0216991 0
0.553947 0.0285856 0
0.550018 0.0304537 0
0.539683 0.0238185 0
0.542086 0.0175221 0
0.00959796 0 0
0.0218907 0 0
0.0223764 0.0117108 0
0.0213746 0.0127214 0
0.0103232 0.00976793 0
0.00959796 0 0
0.0243764 0.0242345 0
0.020319 0.0203263 0
0.0213746 0.0127214 0
0.0223764 0.0117108 0
0.0328877 0.0116937 0
0.0343593 0.01366 0
0.0297511 0.0240862 0
0.0243764 0.0242345 0
0.526309 0.0198658 0
0.528678 0.0110685 0
0.537713 0.0121006 0
0.542086 0.0175221 0
0.539683 0.0238185 0
0.538279 0.024494 0
0.526879 0.0211801 0
0.526309 0.0198658 0
0.0665791 0.511475 0
0.0778911 0.510118 0
0.0801639 0.511763 0
0.0803433 0.512359 0
0.0741846 0.525097 0
0.0703293 0.525436 0
0.0646815 0.516411 0
0.0665791 0.511475 0
0 0.0144401 0
0.005795 0.0145496 0
0.0119086 0.0230384 0
0.00987124 0.0278737 0
0 0.0296043 0
0 0.0144401 0
0.555212 0.0216991 0
0.566504 0.0183277 0
0.569304 0.0223804 0
0.567902 0.0300732 0
0.561473 0.0329619 0
0.553947 0.0285856 0
0.555212 0.0216991 0
0.0262364 0.0382369 0
0.0216224 0.0328712 0
0.0243764 0.0242345 0
0.0297511 0.0240862 0
0.036051 0.0297098 0
0.031855 0.0369146 0
0.0262364 0.0382369 0
0.0873657 0.527928 0
0.08957 0.51987 0
0.096156 0.517525 0
0.101812 0.519976 0
0.0986582 0.532214 0
0.0923516 0.533231 0
0.0873657 0.527928 0
0.00987124 0.0278737 0
0.0119086 0.0230384 0
0.020319 0.0203263 0
0.0243764 0.0242345 0
0.0216224 0.0328712 0
0.013812 0.0337026 0
0.00987124 0.0278737 0
0.0351188 0 0
0.0412547 0 0
0.0454464 0.0114016 0
0.0401951 0.0152075 0
0.0343593 0.01366 0
0.0328877 0.0116937 0
0.0351188 0 0
0.101227 0.503001 0
0.108387 0.507339 0
0.103732 0.51949 0
0.101812 0.519976 0
0.096156 0.517525 0
0.0947072 0.505209 0
0.101227 0.503001 0
0.0513387 0.0126305 0
0.0583937 0 0
0.0605041 0 0
0.0652447 0.0125481 0
0.0622229 0.0160988 0
0.0539025 0.0156648 0
0.0513387 0.0126305 0
0.499063 0.0426043 0
0.503711 0.0345608 0
0.510997 0.0338144 0
0.51491 0.0429214 0
0.512617 0.0472579 0
0.506822 0.048841 0
0.499063 0.0426043 0
0.0412547 0 0
0.0583937 0 0
0.0513387 0.0126305 0
0.0454464 0.0114016 0
0.0412547 0 0
0.0401951 0.0152075 0
0.0454464 0.0114016 0
0.0513387 0.0126305 0
0.0539025 0.0156648 0
0.051052 0.0243621 0
0.0425484 0.025138 0
0.0401951 0.0152075 0
0.510997 0.0338144 0
0.513162 0.0306992 0
0.52349 0.0296699 0
0.527344 0.036434 0
0.524605 0.0414902 0
0.51491 0.0429214 0
0.510997 0.0338144 0
0.0297511 0.0240862 0
0.0343593 0.01366 0
0.0401951 0.0152075 0
0.0425484 0.025138 0
0.0396932 0.0290577 0
0.036051 0.0297098 0
0.0297511 0.0240862 0
0.114961 0.498295 0
0.125383 0.499971 0
0.127637 0.505832 0
0.119234 0.513426 0
0.110571 0.506802 0
0.114961 0.498295 0
0.0463753 0.037577 0
0.0396932 0.0290577 0
0.0425484 0.025138 0
0.051052 0.0243621 0
0.0555079 0.0298168 0
0.0501248 0.0375422 0
0.0463753 0.037577 0
0.103732 0.51949 0
0.108387 0.507339 0
0.110571 0.506802 0
0.119234 0.513426 0
0.119583 0.51739 0
0.111765 0.523358 0
0.103732 0.51949 0
0.051052 0.0243621 0
0.0539025 0.0156648 0
0.0622229 0.0160988 0
0.0643967 0.0229143 0
0.0598335 0.0297093 0
0.0555079 0.0298168 0
0.051052 0.0243621 0
0 0.0296043 0
0.00987124 0.0278737 0
0.013812 0.0337026 0
0.0119429 0.0397665 0
0 0.0393369 0
0 0.0296043 0
0.524605 0.0414902 0
0.527344 0.036434 0
0.534968 0.0357204 0
0.539678 0.0401137 0
0.538408 0.0469651 0
0.529011 0.0507931 0
0.524605 0.0414902 0
0.0986582 0.532214 0
0.101812 0.519976 0
0.103732 0.51949 0
0.111765 0.523358 0
0.113381 0.531207 0
0.103702 0.536037 0
0.0986582 0.532214 0
0 0.0393369 0
0.0119429 0.0397665 0
0.0147172 0.0455524 0
0.012294 0.0498235 0
0 0.0494996 0
0 0.0393369 0
0.51491 0.0429214 0
0.524605 0.0414902 0
0.529011 0.0507931 0
0.527987 0.053462 0
0.519247 0.0559817 0
0.512617 0.0472579 0
0.51491 0.0429214 0
0.0230424 0.04506 0
0.0262364 0.0382369 0
0.031855 0.0369146 0
0.0383989 0.0448024 0
0.0283914 0.0520674 0
0.0275418 0.0517614 0
0.0230424 0.04506 0
0.111765 0.523358 0
0.119583 0.51739 0
0.127935 0.522555 0
0.128071 0.523422 0
0.119287 0.534277 0
0.118373 0.534422 0
0.113381 0.531207 0
0.111765 0.523358 0
0.0119429 0.0397665 0
0.013812 0.0337026 0
0.0216224 0.0328712 0
0.0262364 0.0382369 0
0.0230424 0.04506 0
0.0147172 0.0455524 0
0.0119429 0.0397665 0
0.503901 0.0608884 0
0.503516 0.0599715 0
0.506822 0.048841 0
0.512617 0.0472579 0
0.519247 0.0559817 0
0.516777 0.0618582 0
0.503901 0.0608884 0
0.070231 0.541294 0
0.0783263 0.540737 0
0.0816089 0.543209 0
0.0813127 0.553342 0
0.0697039 0.553172 0
0.0674711 0.548951 0
0.0683183 0.543078 0
0.070231 0.541294 0
0 0.0494996 0
0.012294 0.0498235 0
0.0145888 0.057882 0
0.0115005 0.0602998 0
0 0.0593764 0
0 0.0494996 0
0.012294 0.0498235 0
0.0147172 0.0455524 0
0.0230424 0.04506 0
0.0275418 0.0517614 0
0.0170507 0.0585882 0
0.0145888 0.057882 0
0.012294 0.0498235 0
0.0676646 0.528755 0
0.0703293 0.525436 0
0.0741846 0.525097 0
0.0801791 0.52945 0
0.0783263 0.540737 0
0.070231 0.541294 0
0.0676646 0.528755 0
0.519247 0.0559817 0
0.527987 0.053462 0
0.532396 0.0610987 0
0.530913 0.0656492 0
0.519656 0.0685804 0
0.516777 0.0618582 0
0.519247 0.0559817 0
0.0170507 0.0585882 0
0.0275418 0.0517614 0
0.0283914 0.0520674 0
0.0327035 0.058541 0
0.0255317 0.0674565 0
0.0231179 0.0674868 0
0.0170507 0.0585882 0
0.0801791 0.52945 0
0.0873657 0.527928 0
0.0923516 0.533231 0
0.0892396 0.541623 0
0.0816089 0.543209 0
0.0783263 0.540737 0
0.0801791 0.52945 0
0.534968 0.0357204 0
0.538279 0.024494 0
0.539683 0.0238185 0
0.550018 0.0304537 0
0.547568 0.0378239 0
0.539678 0.0401137 0
0.534968 0.0357204 0
0.0405945 0.045122 0
0.0463753 0.037577 0
0.0501248 0.0375422 0
0.0562324 0.0457402 0
0.0562364 0.045919 0
0.0489739 0.0517768 0
0.0444865 0.0508451 0
0.0405945 0.045122 0
0.550018 0.0304537 0
0.553947 0.0285856 0
0.561473 0.0329619 0
0.560984 0.0416768 0
0.553743 0.0449362 0
0.547568 0.0378239 0
0.550018 0.0304537 0
0.0697039 0.553172 0
0.0813127 0.553342 0
0.082369 0.554659 0
0.0756185 0.567394 0
0.0705041 0.566825 0
0.0669497 0.56205 0
0.0697039 0.553172 0
0.031855 0.0369146 0
0.036051 0.0297098 0
0.0396932 0.0290577 0
0.0463753 0.037577 0
0.0405945 0.045122 0
0.0383989 0.0448024 0
0.031855 0.0369146 0
0.506621 0.538455 0
0.510568 0.531641 0
0.51719 0.530529 0
0.523041 0.536894 0
0.522322 0.541191 0
0.513744 0.54699 0
0.506621 0.538455 0
0.538408 0.0469651 0
0.539678 0.0401137 0
0.547568 0.0378239 0
0.553743 0.0449362 0
0.552656 0.0494203 0
0.545057 0.0536405 0
0.538408 0.0469651 0
0.0791912 0.570749 0
0.0756185 0.567394 0
0.082369 0.554659 0
0.0882493 0.556299 0
0.0907572 0.5654 0
0.0831014 0.570872 0
0.0791912 0.570749 0
0.536267 0.547101 0
0.529764 0.54876 0
0.522322 0.541191 0
0.523041 0.536894 0
0.531655 0.532407 0
0.538666 0.53857 0
0.536267 0.547101 0
0.529011 0.0507931 0
0.538408 0.0469651 0
0.545057 0.0536405 0
0.543898 0.0587796 0
0.532396 0.0610987 0
0.527987 0.053462 0
0.529011 0.0507931 0
0.0562324 0.0457402 0
0.0658055 0.0361572 0
0.0691427 0.0366209 0
0.0722596 0.0442382 0
0.069658 0.0492557 0
0.0617403 0.0501275 0
0.0562364 0.045919 0
0.0562324 0.0457402 0
0.0882493 0.556299 0
0.0944926 0.551958 0
0.104673 0.559189 0
0.098084 0.568345 0
0.0907572 0.5654 0
0.0882493 0.556299 0
0.0501248 0.0375422 0
0.0555079 0.0298168 0
0.0598335 0.0297093 0
0.0658055 0.0361572 0
0.0562324 0.0457402 0
0.0501248 0.0375422 0
0.545057 0.0536405 0
0.552656 0.0494203 0
0.560251 0.0566827 0
0.557564 0.0633186 0
0.546554 0.063189 0
0.543898 0.0587796 0
0.545057 0.0536405 0
0.0816089 0.543209 0
0.0892396 0.541623 0
0.0948521 0.547652 0
0.0944926 0.551958 0
0.0882493 0.556299 0
0.082369 0.554659 0
0.0813127 0.553342 0
0.0816089 0.543209 0
0.0283914 0.0520674 0
0.0383989 0.0448024 0
0.0405945 0.045122 0
0.0444865 0.0508451 0
0.0374614 0.0596249 0
0.0327035 0.058541 0
0.0283914 0.0520674 0
0.553743 0.0449362 0
0.560984 0.0416768 0
0.568559 0.0465245 0
0.566592 0.0546635 0
0.560251 0.0566827 0
0.552656 0.0494203 0
0.553743 0.0449362 0
0.0923516 0.533231 0
0.0986582 0.532214 0
0.103702 0.536037 0
0.103878 0.542554 0
0.0948521 0.547652 0
0.0892396 0.541623 0
0.0923516 0.533231 0
0.505876 0.562097 0
0.507938 0.55355 0
0.51294 0.550627 0
0.521291 0.557491 0
0.517392 0.567272 0
0.514721 0.568399 0
0.505876 0.562097 0
0.0374614 0.0596249 0
0.0444865 0.0508451 0
0.0489739 0.0517768 0
0.0517287 0.0596758 0
0.0463848 0.0657337 0
0.0408066 0.0646783 0
0.0374614 0.0596249 0
0.569304 0.0223804 0
0.566504 0.0183277 0
0.567291 0.0130696 0
0.574564 0.00960912 0
0.58259 0.0143543 0
0.580959 0.0211413 0
0.569304 0.0223804 0
0.103702 0.536037 0
0.113381 0.531207 0
0.118373 0.534422 0
0.115032 0.545917 0
0.110004 0.547342 0
0.103878 0.542554 0
0.103702 0.536037 0
0.513744 0.54699 0
0.522322 0.541191 0
0.529764 0.54876 0
0.526316 0.556339 0
0.521291 0.557491 0
0.51294 0.550627 0
0.513744 0.54699 0
0.56138 0 0
0.57452 0 0
0.574564 0.00960912 0
0.567291 0.0130696 0
0.561647 0.00776814 0
0.56138 0 0
0.0489739 0.0517768 0
0.0562364 0.045919 0
0.0617403 0.0501275 0
0.0606037 0.0611899 0
0.0600345 0.0615441 0
0.0517287 0.0596758 0
0.0489739 0.0517768 0
0.574564 0.00960912 0
0.57452 0 0
0.588101 0 0
0.58337 0.0139602 0
0.58259 0.0143543 0
0.574564 0.00960912 0
0.115032 0.545917 0
0.118373 0.534422 0
0.119287 0.534277 0
0.130407 0.540815 0
0.131519 0.545985 0
0.121471 0.550475 0
0.115032 0.545917 0
0.0605041 0 0
0.0763786 0 0
0.0715975 0.0120585 0
0.0652447 0.0125481 0
0.0605041 0 0
0.58337 0.0139602 0
0.588101 0 0
0.594098 0 0
0.597112 0.0094157 0
0.593384 0.0149888 0
0.58337 0.0139602 0
0.538666 0.53857 0
0.545654 0.536252 0
[...]
CELL_DATA 6400
FIELD FieldData 3
weight 1 6400 float
 0.0525683 0.052674 0.052891 0.0527309 0.0547011 0.0526605 0.0527711 0.0546865 0.0528361 0.0526209 0.0547059 0.052815 0.0529619 0.0527351 0.0528173 0.0530795 0.0529664 0.0548021 0.0529001 0.0529162 0.0547878 0.0528438 0.053252 0.0529536 0.053142 0.0530007 0.0526732 0.0548082 0.0530273 0.0526965 0.0548329 0.0528726 0.0531473 0.0527707 0.0548596 0.0526984 0.0527271 0.0528055 0.0527749 0.0548702 0.0528779 0.0528413 0.0547556 0.0529881 0.0547575 0.0526467 0.0529089 0.0544417 0.054804 0.0526859 0.0544133 0.0548464 0.0531141 0.0527823 0.0530458 0.054844 0.0527801 0.0529366 0.0547969 0.0529068 0.0543061 0.0530177 0.0546472 0.053012 0.0543605 0.0546108 0.0530893 0.0545944 0.0530822 0.0530212 0.0545891 0.054379 0.0530641 0.0546977 0.0528935 0.0530863 0.0543766 0.0546374 0.0531769 0.0543226 0.0529628 0.054695 0.0531465 0.0521602 0.0546138 0.0530784 0.0520661 0.0545979 0.0531448 0.0543104 0.0545599 0.0521965 0.0532386 0.0545291 0.0542849 0.0520657 0.0532026 0.0519568 0.0532773 0.0546493 0.0545 0.0520281 0.0532918 0.0546198 0.0533412 0.0545623 0.0521532 0.0533638 0.0547507 0.0545802 0.052263 0.0533687 0.0547605 0.0545443 0.0532695 0.0547495 0.0524197 0.0534366 0.0548423 0.0524951 0.053443 0.0523897 0.0547889 0.0545085 0.0531725 0.0522867 0.0548351 0.0544371 0.0532705 0.0544177 0.0547964 0.0521588 0.0532092 0.0547271 0.0546997 0.0544653 0.0531622 0.0524059 0.0546778 0.0533074 0.0544719 0.0523963 0.0546878 0.0533301 0.0519192 0.0544285 0.0547834 0.0534278 0.0519174 0.054732 0.0518719 0.0535272 0.0520551 0.0549317 0.0533637 0.0517912 0.0545021 0.0548977 0.0534152 0.0518209 0.0544326 0.054915 0.0534447 0.0519125 0.0543388 0.0549628 0.0520166 0.0535338 0.0527672 0.0549736 0.0521373 0.0543923 0.0522292 0.0549534 0.0528259 0.0543583 0.0523059 0.054884 0.0527994 0.0543342 0.054929 0.0529234 0.0520921 0.0543783 0.0548819 0.0529618 0.0520075 0.0549627 0.052825 0.0528695 0.0549559 0.0521631 0.0542775 0.0549283 0.0529688 0.052597 0.0542889 0.0530437 0.0542338 0.0525328 0.0550006 0.0530172 0.0542905 0.0526834 0.0550333 0.053188 0.052451 0.0550117 0.0531609 0.0525859 0.0543376 0.05499 0.0531101 0.0542447 0.0528138 0.0530708 0.0550662 0.0542375 0.052922 0.0531039 0.0550773 0.0527225 0.053193 0.0527037 0.0550432 0.0541897 0.0529329 0.0550146 0.052904 0.05282 0.0550217 0.0542536 0.0528509 0.0528312 0.0549904 0.0542731 0.0529973 0.0549934 0.0524307 0.0528892 0.0542193 0.0525271 0.0550502 0.0529739 0.0523401 0.0550283 0.0531069 0.0523159 0.0550575 0.0541913 0.0530237 0.0548928 0.0540989 0.0524217 0.0530555 0.0548367 0.0541536 0.054875 0.0525689 0.0549211 0.0531444 0.0548829 0.0530887 0.0526705 0.054924 0.0532058 0.0548335 0.0527392 0.0542522 0.0531997 0.0547867 0.0525082 0.0541981 0.053153 0.0547794 0.0541856 0.0526335 0.0548679 0.0532641 0.0541623 0.0548236 0.0525661 0.0532642 0.0548316 0.0532627 0.0549598 0.0533528 0.0540922 0.0549878 0.0549493 0.0532592 0.0540244 0.0534137 0.0550267 0.0549942 0.0540195 0.0532812 0.0549118 0.0540949 0.0548727 0.0531827 0.0540102 0.0548802 0.0533324 0.0533232 0.0549614 0.0539315 0.0533771 0.0535015 0.05492 0.0532484 0.0539377 0.053528 0.0549254 0.0533459 0.054081 0.0535817 0.0540151 0.0534091 0.0544971 0.0539902 0.0533973 0.0545257 0.0534957 0.0534751 0.0544714 0.0538906 0.0534597 0.0544787 0.0535726 0.0539565 0.053571 0.0545583 0.0539029 0.0535567 0.0531905 0.0544984 0.0535162 0.0545398 0.054227 0.0532768 0.0544077 0.0536413 0.054431 0.054184 0.0530711 0.0543581 0.0541298 0.0532905 0.0543246 0.0530563 0.0541331 0.0533093 0.0544546 0.0532087 0.0540456 0.053479 0.054444 0.0531515 0.0540292 0.0533769 0.0544032 0.0540861 0.0533407 0.0534533 0.0546042 0.0541895 0.0534989 0.0533744 0.0546179 0.0534235 0.0540932 0.0534116 0.0533074 0.0546723 0.0541332 0.0534956 0.0532066 0.0540881 0.0547235 0.0535421 0.0533766 0.0540392 0.0546784 0.0539438 0.0535919 0.0533965 0.054625 0.0539869 0.053626 0.0545172 0.0538817 0.0545744 0.0536965 0.0536739 0.0545126 0.0538897 0.0536595 0.0535591 0.0544662 0.0538521 0.0545701 0.0536376 0.0539808 0.0538299 0.0545253 0.05394 0.0537388 0.0537039 0.0542803 0.0538816 0.0542011 0.0534845 0.0536386 0.054259 0.0539338 0.0534919 0.0542924 0.0537431 0.0538399 0.053402 0.0544016 0.0535441 0.0543693 0.0538293 0.0539231 0.0535199 0.054341 0.0536559 0.0537616 0.0543477 0.0539451 0.053552 0.0542024 0.0536889 0.0543798 0.0538458 0.0541429 0.0536014 0.0537291 0.0540757 0.0537588 0.0544587 0.0536667 0.0542505 0.0537206 0.0542806 0.0538625 0.0544119 0.0536209 0.054159 0.053762 0.0535837 0.0543569 0.0537894 0.0541518 0.053667 0.0542944 0.0544081 0.053603 0.053478 0.0543319 0.0543762 0.0535703 0.0535186 0.0542779 0.0543283 0.0534857 0.0536181 0.0542991 0.0544728 0.0536733 0.053623 0.054445 0.0536932 0.0543175 0.054399 0.0538702 0.0537034 0.0543134 0.0542301 0.0537814 0.0537256 0.0542684 0.0542295 0.0536904 0.0538816 0.0542253 0.0541709 0.0535921 0.0537925 0.0543385 0.0542003 0.0537849 0.0537758 0.0542414 0.0543051 0.0537885 0.0536745 0.0541484 0.0547379 0.0538589 0.0529767 0.0547282 0.0540948 0.0538106 0.0531254 0.054681 0.0537869 0.0541472 0.0530726 0.0546757 0.0541829 0.0547875 0.0538533 0.0547841 0.0541252 0.0529425 0.0539403 0.0547449 0.054071 0.0546362 0.0538531 0.0530017 0.0540837 0.0546199 0.0538747 0.0532057 0.0540299 0.0545673 0.0539797 0.0533007 0.0539749 0.0539357 0.0546963 0.0532606 0.0542539 0.0539897 0.0545896 0.0530712 0.0539316 0.0546488 0.0541964 0.0531552 0.0540487 0.0548365 0.0541253 0.0532059 0.0547826 0.0540945 0.0541609 0.0528408 0.0548255 0.0540546 0.0541047 0.0528474 0.0540014 0.0548786 0.0540586 0.0529404 0.0540669 0.054867 0.0527141 0.0541039 0.0548217 0.0541277 0.0528811 0.0547772 0.0538928 0.0547188 0.0540884 0.0527305 0.0540435 0.0546829 0.0540351 0.0530183 0.0540364 0.054736 0.0539853 0.0531191 0.0539782 0.0539649 0.0547874 0.0530984 0.0539588 0.0547441 0.0539809 0.0529345 0.0541217 0.0540256 0.0545131 0.0530016 0.0540482 0.0544709 0.0541175 0.0541184 0.0529669 0.0545891 0.0540631 0.0545438 0.0541528 0.0533935 0.0540071 0.0545188 0.0534104 0.0539322 0.054168 0.0544424 0.0534972 0.0539711 0.0541914 0.0533158 0.0543852 0.0538822 0.0533067 0.0543765 0.0539306 0.0542467 0.0544997 0.0539264 0.0534212 0.0536897 0.0535857 0.0538887 0.0543864 0.0536077 0.0544337 0.0535913 0.0537583 0.0538134 0.0546317 0.0536496 0.0535087 0.0545611 0.0538436 0.0546117 0.0537226 0.0535009 0.05384 0.0537416 0.0547065 0.0532011 0.0540419 0.0538401 0.0532362 0.054676 0.0540385 0.0538655 0.053318 0.0546475 0.0539934 0.0538486 0.0530808 0.0545836 0.0539391 0.0539371 0.0545404 0.053231 0.0539301 0.0539823 0.0531225 0.0544287 0.0539365 0.0538878 0.0544724 0.053412 0.0540142 0.0539814 0.0545108 0.0533276 0.0540147 0.0539345 0.053879 0.0545374 0.0534147 0.0537603 0.0539369 0.0538103 0.0544638 0.0532385 0.0538278 0.0538506 0.0538824 0.0551181 0.0537917 0.0533843 0.0537913 0.0550957 0.0538295 0.053799 0.0533102 0.0550882 0.0538764 0.0537684 0.0517017 0.0551053 0.0539973 0.051671 0.0537177 0.0538998 0.0538249 0.0551443 0.0518486 0.0539931 0.0537641 0.0551264 0.051575 0.0540636 0.0551084 0.0536752 0.0517513 0.0539273 0.0550906 0.0537314 0.0519896 0.055087 0.0536549 0.0540057 0.0518879 0.0536579 0.055065 0.0540698 0.0521651 0.0551284 0.0538736 0.0540595 0.0551147 0.0520537 0.0538358 0.0541109 0.0551112 0.0537752 0.051823 0.0540237 0.0551518 0.0537707 0.0520739 0.0551367 0.0541654 0.0537209 0.0551592 0.051951 0.0540922 0.0537478 0.0551694 0.0516263 0.0541597 0.0541903 0.0514686 0.053735 0.055185 0.0516916 0.053677 0.0542382 0.05518 0.0513927 0.0551706 0.0535819 0.054201 0.0515468 0.0551487 0.0536521 0.0551309 0.0515726 0.0542724 0.0537324 0.0551531 0.0514967 0.0542387 0.053634 0.055136 0.0517315 0.0535485 0.0543271 0.0518221 0.0550592 0.0536486 0.0542921 0.0519717 0.0550232 0.0541466 0.053543 0.0550847 0.0516815 0.0540936 0.0550671 0.0535356 0.0516635 0.0550754 0.0542238 0.053633 0.0518116 0.0549964 0.0535355 0.0541352 0.0517714 0.0549707 0.0542014 0.0522391 0.0535038 0.0549656 0.0542844 0.0523143 0.0550268 0.0534372 0.0543009 0.0550328 0.0521362 0.053433 0.0550063 0.0521702 0.0534559 0.0549982 0.0544208 0.0522579 0.0551164 0.0543607 0.0533631 0.0551144 0.0524538 0.0550903 0.0543453 0.0523872 0.055098 0.0538579 0.0543607 0.055134 0.0524575 0.0537797 0.0551086 0.054431 0.0522125 0.0550557 0.0538312 0.0550708 0.0529137 0.0522911 0.0536713 0.052982 0.05502 0.0524088 0.0537363 0.0550753 0.0530513 0.052339 0.0538397 0.0550418 0.0531086 0.0519935 0.0538035 0.0529362 0.0552056 0.0529472 0.051961 0.0552066 0.0538077 0.0530261 0.0552113 0.0520507 0.0536844 0.0531193 0.0552073 0.0521213 0.0551884 0.053697 0.053233 0.0551723 0.0518098 0.0537361 0.0531725 0.0551536 0.051864 0.0551906 0.0536566 0.0532603 0.0519901 0.0551899 0.0532006 0.0535649 0.0551722 0.0522369 0.0532781 0.0536306 0.052104 0.0533677 0.0552364 0.0523226 0.053471 0.0533216 0.0552237 0.0530215 0.052243 0.0535125 0.055233 0.0529587 0.053458 0.053106 0.0521204 0.0552378 0.0531249 0.0535692 0.0552311 0.0521017 0.0529815 0.0552113 0.0535905 0.0530413 0.055222 0.0536329 0.0521795 0.0530745 0.0552032 0.0512836 0.0534498 0.0531275 0.0535074 0.0552249 0.0513024 0.0532479 0.0534092 0.0514916 0.0551961 0.0531776 0.0514201 0.0533202 0.0552134 0.0537789 0.0512044 0.0551523 0.0537457 0.0551272 0.0511157 0.0536894 0.0531975 0.055169 0.051266 0.055143 0.05379 0.0533543 0.0513705 0.0551149 0.0536383 0.0550933 0.0532804 0.0515644 0.0536575 0.0516637 0.0550411 0.0534386 0.0535723 0.051619 0.0550582 0.0537457 0.0533398 0.0514432 0.0551016 0.0534271 0.0536943 0.055074 0.051466 0.0535099 0.0550492 0.053659 0.0515491 0.0534358 0.0551849 0.0536303 0.0510277 0.0551613 0.0535714 0.0535782 0.0511715 0.0551327 0.0535103 0.0535022 0.0551513 0.0511013 0.0535425 0.0535834 0.0551763 0.0510173 0.0535078 0.0509472 0.0536589 0.0533971 0.0551651 0.0511853 0.0534402 0.0551145 0.0537215 0.0533791 0.0510328 0.0550916 0.0535978 0.0534493 0.0512636 0.0551387 0.0536802 0.0535017 0.0514573 0.053465 0.0550841 0.0537805 0.0513294 0.0533252 0.0537416 0.0551124 0.0511164 0.0533887 0.0534076 0.054909 0.0512023 0.0535515 0.0533284 0.0549216 0.0534749 0.0512819 0.0533769 0.0534867 0.0548552 0.0512852 0.0533405 0.0534422 0.0549494 0.0517504 0.0532662 0.0549351 0.0519585 0.0548985 0.0518023 0.0531705 0.0548392 0.0515931 0.0518067 0.0547855 0.0532494 0.0548857 0.0517296 0.0531759 0.0547712 0.0533471 0.0519515 0.0548295 0.0519601 0.0533277 0.0550035 0.053301 0.0520506 0.0549793 0.0532166 0.0549618 0.0519051 0.0531407 0.0549155 0.0519556 0.0531952 0.0550201 0.0514918 0.053085 0.0549773 0.0516019 0.0549344 0.053059 0.0515171 0.0549527 0.0514097 0.0548615 0.0529798 0.0548273 0.0514213 0.0548116 0.0530019 0.0517624 0.054906 0.0529303 0.0517124 0.0548842 0.0530334 0.0516175 0.0548501 0.0531171 0.0518528 0.0547334 0.0530567 0.0546532 0.0515014 0.0529102 0.054675 0.0529856 0.0515668 0.0547488 0.0547136 0.0528821 0.0517349 0.0546813 0.0533221 0.0516881 0.0545631 0.0532613 0.0525988 0.0545963 0.0532644 0.0526452 0.0531363 0.0544959 0.0532125 0.0528086 0.0546183 0.0532495 0.0525217 0.0545084 0.0532103 0.0545667 0.052537 0.0531597 0.0547705 0.0531442 0.0526221 0.0547048 0.0530921 0.054795 0.0530341 0.052889 0.0547539 0.0531118 0.0527767 0.054724 0.0546449 0.0529312 0.0529541 0.0546373 0.0528327 0.0528996 0.0545854 0.0527123 0.052999 0.0546924 0.052708 0.0530454 0.0545996 0.0527879 0.053024 0.052365 0.054639 0.0529706 0.0524813 0.0549986 0.0528985 0.0525892 0.0549664 0.0524692 0.0528563 0.0550207 0.052342 0.0550192 0.0523497 0.0528896 0.0549776 0.0525022 0.0549321 0.0525819 0.0537174 0.0526969 0.054924 0.0524471 0.0536086 0.0548664 0.0525837 0.054939 0.0536488 0.0548834 0.0530412 0.0535934 0.0530156 0.0550552 0.0534769 0.0550282 0.0531273 0.0549807 0.053527 0.0528886 0.0530454 0.0535396 0.0550512 0.0529255 0.0535789 0.0549987 0.0531863 0.054944 0.0535458 0.0548891 0.0535248 0.0532633 0.0534783 0.0549558 0.0531591 0.0549045 0.0534498 0.0530809 0.0534149 0.0529602 0.0549108 0.0534023 0.0548145 0.0533602 0.0531211 0.0548342 0.0534204 0.0530516 0.0547665 0.0527893 0.05484 0.0532898 0.0528427 0.0547283 0.0532958 0.0547854 0.0528396 0.0532647 0.0547454 0.0526839 0.0532709 0.0546969 0.0533705 0.0525766 0.0545796 0.0533276 0.0527414 0.0546417 0.0532096 0.0526975 0.0529315 0.0546522 0.0531255 0.0546918 0.0529961 0.0532063 0.0548509 0.0527993 0.0534449 0.0547525 0.0533481 0.0527952 0.054797 0.0528896 0.0534427 0.0548593 0.0522234 0.0533645 0.0548058 0.0520988 0.0532733 0.0547619 0.052323 0.0533481 0.0546966 0.0522003 0.0532648 0.0546371 0.0520767 0.053341 0.0521686 0.0546455 0.0532656 0.0520583 0.0547085 0.0523445 0.0532437 0.0523495 0.0546524 0.0531658 0.052425 0.0539999 0.0532568 0.0524712 0.0531717 0.0540907 0.0522298 0.0531703 0.0540041 0.05226 0.0539429 0.0523082 0.0531312 0.0540778 0.0519097 0.0530742 0.0519181 0.0530918 0.0540657 0.0539296 0.0520092 0.0531615 0.0538646 0.0521132 0.0530699 0.053805 0.0517895 0.0539758 0.0529989 0.0539446 0.0530052 0.0518035 0.0538437 0.0518855 0.0538818 0.0529062 0.0521432 0.054172 0.0531821 0.0521631 0.0541341 0.053188 0.0540937 0.051949 0.0531682 0.0540376 0.0520523 0.0530827 0.054255 0.0521502 0.0530838 0.0542202 0.0520503 0.0530625 0.0541272 0.052618 0.0529974 0.0541715 0.0531046 0.0525106 0.054005 0.0530146 0.052591 0.0539602 0.0529768 0.0524036 0.0539201 0.0529198 0.0525321 0.054085 0.0529184 0.052475 0.0540506 0.0528762 0.0526873 0.054003 0.0529685 0.0528436 0.0537482 0.05295 0.0527138 0.0537873 0.052864 0.0536299 0.052629 0.0536865 0.0528367 0.0536585 0.0526539 0.0538361 0.0525676 0.0528048 0.0537398 0.052271 0.0527342 0.0537014 0.0523843 0.0535558 0.0528349 0.0523627 0.0534978 0.0527886 0.0534353 0.0522228 0.0534619 0.0527176 0.0522644 0.0536003 0.0524699 0.0526952 0.053527 0.0524324 0.0536504 0.0525961 0.0525315 0.0535714 0.0530438 0.0534822 0.0523089 0.0529549 0.0538849 0.0523441 0.0530387 0.0537952 0.0528334 0.0524198 0.053735 0.0529398 0.0538349 0.0528617 0.0540304 0.0539065 0.0528757 0.0537431 0.0540274 0.0528019 0.0538289 0.0540987 0.0536545 0.0529029 0.0527779 0.0535765 0.053948 0.0527636 0.0535586 0.0539541 0.0536685 0.0526968 0.0540267 0.0537352 0.0526947 0.0541697 0.0527606 0.0536465 0.0526381 0.0542407 0.0540694 0.0543107 0.0527476 0.0540934 0.0542123 0.0526246 0.0541256 0.0541622 0.0525825 0.0541584 0.0542466 0.052663 0.0538635 0.054323 0.0539408 0.0526214 0.0542053 0.053769 0.0542842 0.0525016 0.0538483 0.0540589 0.0538534 0.052512 0.0541298 0.054012 0.0525205 0.0539871 0.0539825 0.0540388 0.054164 0.0524011 0.0539298 0.0540833 0.0538969 0.0539516 0.0543586 0.0523978 0.054301 0.0542405 0.0539746 0.0542725 0.054319 0.0543359 0.0538783 0.0543929 0.054364 0.0539266 0.0544226 0.0541872 0.0542133 0.0539477 0.0543449 0.0542402 0.0541914 0.0543849 0.0538775 0.0541143 0.054454 0.0542234 0.0538603 0.0542671 0.0544853 0.0537449 0.0541722 0.0543 0.0538301 0.0543426 0.0541399 0.0537364 0.0539033 0.0544111 0.0537063 0.0540997 0.0538184 0.0541476 0.0536761 0.0538784 0.0542076 0.0540073 0.0537779 0.0540066 0.0539535 0.0540554 0.0536427 0.054038 0.054102 0.0537847 0.0539234 0.0542615 0.0537968 0.053798 0.0543154 0.0537147 0.0542192 0.0536306 0.0541129 0.0536144 0.0537185 0.0538503 0.0541634 0.0536941 0.0537741 0.0535882 0.0541795 0.053668 0.0536037 0.0536846 0.0536864 0.0536595 0.0536791 0.0539949 0.0535521 0.0537584 0.0540669 0.0535575 0.0537725 0.0539402 0.0534564 0.0535907 0.05403 0.0535139 0.0535785 0.0536541 0.0540923 0.0535994 0.0538401 0.0539864 0.0538994 0.0536134 0.0538184 0.0537381 0.0538565 0.0537997 0.0535098 0.0537647 0.0534625 0.0535225 0.0537335 0.0533861 0.0539018 0.0534912 0.0535456 0.0534867 0.0539313 0.0534063 0.0533456 0.0537444 0.0534281 0.05341 0.053835 0.0536256 0.0533674 0.0536896 0.0532969 0.0532791 0.0537471 0.0532902 0.0532086 0.0535082 0.0533111 0.0533831 0.0535828 0.0533711 0.0536387 0.0532197 0.0532816 0.053954 0.053461 0.0532808 0.0540024 0.0534141 0.0531527 0.0539591 0.0530876 0.0532899 0.0538991 0.0532109 0.053848 0.0533066 0.0530102 0.0538592 0.0530838 0.0533895 0.0540568 0.0531775 0.0540173 0.0533341 0.0531233 0.0540833 0.0531668 0.053105 0.0539221 0.0531779 0.0534761 0.0540296 0.0531882 0.0535103 0.0539754 0.0532118 0.0537984 0.0533567 0.0537017 0.0530709 0.0533891 0.0537565 0.0536501 0.0535347 0.0535852 0.0535614 0.0534589 0.0536517 0.0535098 0.053705 0.0534201 0.05388 0.0534853 0.0532652 0.0538153 0.0531409 0.0538259 0.0535756 0.0531926 0.0539276 0.0534449 0.0532899 0.0537661 0.0534111 0.0533156 0.0534904 0.0537168 0.053209 0.0533906 0.0532265 0.0537726 0.0528919 0.0533585 0.0529512 0.0533487 0.0528275 0.0545114 0.0533035 0.0529945 0.0544731 0.0532792 0.0530007 0.0531943 0.0529272 0.054436 0.0534026 0.0529013 0.0543658 0.0528263 0.0533908 0.0526629 0.0543927 0.0527386 0.0533367 0.0525628 0.0544338 0.0526153 0.0532425 0.0528359 0.0545622 0.0532126 0.0527489 0.0545098 0.0526518 0.0533136 0.0527003 0.054569 0.0532775 0.053063 0.0545096 0.0531559 0.0530615 0.053247 0.0544711 0.0529012 0.0529828 0.054424 0.0530501 0.0529817 0.0543236 0.0531605 0.0531286 0.0542866 0.0532633 0.0530609 0.0543607 0.0532139 0.0529803 0.0542279 0.0528886 0.0531756 0.0542166 0.0527813 0.0531204 0.0542736 0.0528151 0.0543956 0.0531022 0.0527064 0.0543602 0.0531436 0.0528805 0.0543379 0.0527531 0.0543089 0.0529492 0.0527426 0.0542566 0.0530139 0.0528142 0.0542806 0.0530229 0.053498 0.0529052 0.0545769 0.053095 0.0536081 0.0545624 0.0530506 0.0534611 0.0545062 0.0529802 0.0533778 0.0544672 0.0529606 0.0535478 0.0545271 0.0530818 0.053595 0.0545836 0.0530472 0.0535211 0.053389 0.0528617 0.0545682 0.0532903 0.0529303 0.0532164 0.0529022 0.0533607 0.0546234 0.0528104 0.0534487 0.0544777 0.0527856 0.0532428 0.0527634 0.0545562 0.0532757 0.0536658 0.0544876 0.0532476 0.0535922 0.054434 0.0543763 0.0535009 0.0544098 0.0532093 0.0536545 0.0543024 0.0531477 0.0543255 0.0536649 0.0544244 0.0530599 0.053553 0.0544244 0.0531549 0.0534265 0.0543474 0.0533331 0.0530008 0.0532899 0.0529745 0.0534449 0.0528512 0.0534859 0.0529611 0.0533573 0.0527678 0.0533818 0.0528913 0.0531461 0.0530994 0.0531106 0.053031 0.0530684 0.0531884 0.0529275 0.0531235 0.0529048 0.0530567 0.053025 0.0529382 0.0528394 0.0528973 0.0527898 0.0527692 0.0530023 0.0527529 0.0529508 0.0528316 0.0528332 0.0543371 0.0528983 0.0527169 0.053198 0.0526608 0.0543248 0.0532028 0.0527806 0.0541279 0.0531039 0.0526133 0.0541662 0.0532702 0.0541086 0.0528226 0.0531267 0.0539847 0.0526452 0.0531491 0.0540718 0.0529677 0.0540168 0.0526885 0.0541657 0.053027 0.052648 0.0528563 0.0541952 0.0541008 0.0529245 0.052741 0.0540564 0.0530442 0.0525752 0.0541292 0.0530711 0.0525537 0.0528785 0.053878 0.0525303 0.052939 0.0539597 0.0539098 0.0524893 0.0544493 0.0538109 0.0523868 0.0543908 0.0538582 0.052404 0.0543726 0.0539994 0.0524396 0.0540426 0.0523818 0.0545156 0.0539768 0.0524956 0.0544369 0.0538444 0.0523108 0.0544538 0.0539035 0.0539488 0.0525089 0.0542907 0.0525597 0.053889 0.0542424 0.0523896 0.0542225 0.0541841 0.0542673 0.0525151 0.0543206 0.05424 0.054358 0.0524162 0.0541531 0.0542757 0.0541737 0.0523489 0.054214 0.0540953 0.0523132 0.0545255 0.0542642 0.0524398 0.0544678 0.0522059 0.0542533 0.0544168 0.0522726 0.0541864 0.0545416 0.0522695 0.0541965 0.0544858 0.0522069 0.0541863 0.0521108 0.0544248 0.0540606 0.0539886 0.0543863 0.0528361 0.0540121 0.0543152 0.0529334 0.0538954 0.054239 0.0527894 0.0542701 0.0539158 0.0543457 0.0540902 0.0528584 0.054097 0.0542868 0.0526657 0.05401 0.0527171 0.0541002 0.0540873 0.0526698 0.0539746 0.0539321 0.0526474 0.0540194 0.0539131 0.0540495 0.0525666 0.0539942 0.0541587 0.0525583 0.054129 0.0539309 0.0524639 0.0540726 0.0525402 0.0533126 0.0540014 0.0526692 0.053892 0.0532362 0.0527269 0.0533891 0.0538097 0.0526099 0.0531944 0.0538503 0.0532598 0.0539342 0.0525964 0.0534579 0.0538735 0.0525787 0.0534714 0.0541827 0.0524985 0.054101 0.0535165 0.0540139 0.0533452 0.0524204 0.0533955 0.0541209 0.0525628 0.0533584 0.0542136 0.0524121 0.0530789 0.054035 0.0523298 0.0531266 0.0539398 0.0531338 0.0524381 0.0538829 0.0524817 0.0538185 0.0529561 0.0522938 0.0